TITLE = NACA GRID 
FILETYPE = GRID 
VARIABLES = "X", "Y" 
ZONE I=127 , J=63, F=POINT 
1 1
0.9994 0.9994
0.99759 0.99759
0.99459 0.99459
0.99039 0.99039
0.98502 0.98502
0.97847 0.97847
0.97077 0.97077
0.96194 0.96194
0.95199 0.95199
0.94096 0.94096
0.92886 0.92886
0.91573 0.91573
0.9016 0.9016
0.88651 0.88651
0.87048 0.87048
0.85355 0.85355
0.83578 0.83578
0.8172 0.8172
0.79785 0.79785
0.77778 0.77778
0.75705 0.75705
0.7357 0.7357
0.71378 0.71378
0.69134 0.69134
0.66844 0.66844
0.64514 0.64514
0.62149 0.62149
0.59755 0.59755
0.57337 0.57337
0.54901 0.54901
0.52453 0.52453
0.5 0.5
0.47547 0.47547
0.45099 0.45099
0.42663 0.42663
0.40245 0.40245
0.37851 0.37851
0.35486 0.35486
0.33156 0.33156
0.30866 0.30866
0.28622 0.28622
0.2643 0.2643
0.24295 0.24295
0.22221 0.22221
0.20215 0.20215
0.1828 0.1828
0.16422 0.16422
0.14645 0.14645
0.12952 0.12952
0.11349 0.11349
0.098396 0.098396
0.084265 0.084265
0.071136 0.071136
0.059039 0.059039
0.048005 0.048005
0.03806 0.03806
0.029228 0.029228
0.02153 0.02153
0.014984 0.014984
0.0096073 0.0096073
0.0054117 0.0054117
0.0024076 0.0024076
0.00060228 0.00060228
0 0
0.00060228 0.00060228
0.0024076 0.0024076
0.0054117 0.0054117
0.0096073 0.0096073
0.014984 0.014984
0.02153 0.02153
0.029228 0.029228
0.03806 0.03806
0.048005 0.048005
0.059039 0.059039
0.071136 0.071136
0.084265 0.084265
0.098396 0.098396
0.11349 0.11349
0.12952 0.12952
0.14645 0.14645
0.16422 0.16422
0.1828 0.1828
0.20215 0.20215
0.22221 0.22221
0.24295 0.24295
0.2643 0.2643
0.28622 0.28622
0.30866 0.30866
0.33156 0.33156
0.35486 0.35486
0.37851 0.37851
0.40245 0.40245
0.42663 0.42663
0.45099 0.45099
0.47547 0.47547
0.5 0.5
0.52453 0.52453
0.54901 0.54901
0.57337 0.57337
0.59755 0.59755
0.62149 0.62149
0.64514 0.64514
0.66844 0.66844
0.69134 0.69134
0.71378 0.71378
0.7357 0.7357
0.75705 0.75705
0.77778 0.77778
0.79785 0.79785
0.8172 0.8172
0.83578 0.83578
0.85355 0.85355
0.87048 0.87048
0.88651 0.88651
0.9016 0.9016
0.91573 0.91573
0.92886 0.92886
0.94096 0.94096
0.95199 0.95199
0.96194 0.96194
0.97077 0.97077
0.97847 0.97847
0.98502 0.98502
0.99039 0.99039
0.99459 0.99459
0.99759 0.99759
0.9994 0.9994
0.99965 0.99965
0.99965 0.99965
0.99822 0.99822
0.99546 0.99546
0.99144 0.99144
0.9862 0.9862
0.97976 0.97976
0.97216 0.97216
0.96341 0.96341
0.95353 0.95353
0.94255 0.94255
0.9305 0.9305
0.91741 0.91741
0.9033 0.9033
0.88822 0.88822
0.8722 0.8722
0.85527 0.85527
0.83748 0.83748
0.81887 0.81887
0.79948 0.79948
0.77937 0.77937
0.75858 0.75858
0.73715 0.73715
0.71515 0.71515
0.69262 0.69262
0.66962 0.66962
0.6462 0.6462
0.62243 0.62243
0.59835 0.59835
0.57402 0.57402
0.54951 0.54951
0.52487 0.52487
0.50016 0.50016
0.47545 0.47545
0.45078 0.45078
0.42623 0.42623
0.40184 0.40184
0.37769 0.37769
0.35382 0.35382
0.3303 0.3303
0.30718 0.30718
0.28451 0.28451
0.26237 0.26237
0.24078 0.24078
0.21982 0.21982
0.19953 0.19953
0.17996 0.17996
0.16116 0.16116
0.14317 0.14317
0.12604 0.12604
0.10981 0.10981
0.094518 0.094518
0.080203 0.080203
0.066898 0.066898
0.054638 0.054638
0.043451 0.043451
0.033364 0.033364
0.024403 0.024403
0.01659 0.01659
0.0099425 0.0099425
0.0044784 0.0044784
0.00021138 0.00021138
-0.0028469 -0.0028469
-0.0046869 -0.0046869
-0.0053012 -0.0053012
-0.0046867 -0.0046867
-0.0028466 -0.0028466
0.00021183 0.00021183
0.004479 0.004479
0.0099432 0.0099432
0.016591 0.016591
0.024404 0.024404
0.033365 0.033365
0.043452 0.043452
0.054639 0.054639
0.0669 0.0669
0.080204 0.080204
0.09452 0.09452
0.10981 0.10981
0.12604 0.12604
0.14317 0.14317
0.16116 0.16116
0.17996 0.17996
0.19953 0.19953
0.21982 0.21982
0.24079 0.24079
0.26237 0.26237
0.28452 0.28452
0.30718 0.30718
0.3303 0.3303
0.35382 0.35382
0.37769 0.37769
0.40184 0.40184
0.42623 0.42623
0.45078 0.45078
0.47545 0.47545
0.50016 0.50016
0.52487 0.52487
0.54951 0.54951
0.57402 0.57402
0.59835 0.59835
0.62243 0.62243
0.6462 0.6462
0.66962 0.66962
0.69262 0.69262
0.71515 0.71515
0.73715 0.73715
0.75858 0.75858
0.77937 0.77937
0.79948 0.79948
0.81887 0.81887
0.83748 0.83748
0.85527 0.85527
0.8722 0.8722
0.88822 0.88822
0.9033 0.9033
0.91741 0.91741
0.9305 0.9305
0.94255 0.94255
0.95353 0.95353
0.96341 0.96341
0.97216 0.97216
0.97976 0.97976
0.9862 0.9862
0.99144 0.99144
0.99546 0.99546
0.99822 0.99822
0.99965 0.99965
1.0018 1.0018
1.0018 1.0018
1.0005 1.0005
0.99795 0.99795
0.99408 0.99408
0.98896 0.98896
0.98261 0.98261
0.97508 0.97508
0.96638 0.96638
0.95654 0.95654
0.94559 0.94559
0.93354 0.93354
0.92044 0.92044
0.90632 0.90632
0.8912 0.8912
0.87512 0.87512
0.85813 0.85813
0.84027 0.84027
0.82157 0.82157
0.80208 0.80208
0.78185 0.78185
0.76092 0.76092
0.73936 0.73936
0.7172 0.7172
0.6945 0.6945
0.67132 0.67132
0.64772 0.64772
0.62374 0.62374
0.59944 0.59944
0.57489 0.57489
0.55015 0.55015
0.52527 0.52527
0.50031 0.50031
0.47533 0.47533
0.4504 0.4504
0.42557 0.42557
0.40091 0.40091
0.37647 0.37647
0.35232 0.35232
0.3285 0.3285
0.30509 0.30509
0.28214 0.28214
0.2597 0.2597
0.23782 0.23782
0.21658 0.21658
0.196 0.196
0.17615 0.17615
0.15708 0.15708
0.13883 0.13883
0.12144 0.12144
0.10497 0.10497
0.089441 0.089441
0.074903 0.074903
0.061389 0.061389
0.048932 0.048932
0.037563 0.037563
0.027311 0.027311
0.0182 0.0182
0.010254 0.010254
0.003492 0.003492
-0.0020677 -0.0020677
-0.0064101 -0.0064101
-0.0095228 -0.0095228
-0.011395 -0.011395
-0.01202 -0.01202
-0.011395 -0.011395
-0.0095221 -0.0095221
-0.0064091 -0.0064091
-0.0020663 -0.0020663
0.0034937 0.0034937
0.010256 0.010256
0.018202 0.018202
0.027313 0.027313
0.037566 0.037566
0.048935 0.048935
0.061392 0.061392
0.074906 0.074906
0.089445 0.089445
0.10497 0.10497
0.12145 0.12145
0.13883 0.13883
0.15709 0.15709
0.17616 0.17616
0.19601 0.19601
0.21658 0.21658
0.23783 0.23783
0.2597 0.2597
0.28214 0.28214
0.30509 0.30509
0.32851 0.32851
0.35232 0.35232
0.37647 0.37647
0.40091 0.40091
0.42558 0.42558
0.4504 0.4504
0.47533 0.47533
0.50031 0.50031
0.52527 0.52527
0.55015 0.55015
0.57489 0.57489
0.59944 0.59944
0.62374 0.62374
0.64772 0.64772
0.67132 0.67132
0.6945 0.6945
0.7172 0.7172
0.73936 0.73936
0.76092 0.76092
0.78185 0.78185
0.80208 0.80208
0.82156 0.82156
0.84026 0.84026
0.85813 0.85813
0.87512 0.87512
0.8912 0.8912
0.90631 0.90631
0.92044 0.92044
0.93354 0.93354
0.94559 0.94559
0.95654 0.95654
0.96638 0.96638
0.97508 0.97508
0.98261 0.98261
0.98895 0.98895
0.99408 0.99408
0.99795 0.99795
1.0005 1.0005
1.0018 1.0018
1.0059 1.0059
1.0059 1.0059
1.0047 1.0047
1.0022 1.0022
0.9984 0.9984
0.99336 0.99336
0.98707 0.98707
0.97958 0.97958
0.9709 0.9709
0.96106 0.96106
0.95009 0.95009
0.93801 0.93801
0.92485 0.92485
0.91066 0.91066
0.89545 0.89545
0.87927 0.87927
0.86216 0.86216
0.84415 0.84415
0.8253 0.8253
0.80564 0.80564
0.78523 0.78523
0.7641 0.7641
0.74232 0.74232
0.71994 0.71994
0.697 0.697
0.67356 0.67356
0.64969 0.64969
0.62543 0.62543
0.60084 0.60084
0.57599 0.57599
0.55093 0.55093
0.52573 0.52573
0.50044 0.50044
0.47513 0.47513
0.44985 0.44985
0.42467 0.42467
0.39965 0.39965
0.37486 0.37486
0.35034 0.35034
0.32617 0.32617
0.3024 0.3024
0.27908 0.27908
0.25628 0.25628
0.23406 0.23406
0.21246 0.21246
0.19155 0.19155
0.17137 0.17137
0.15197 0.15197
0.1334 0.1334
0.11571 0.11571
0.098947 0.098947
0.083144 0.083144
0.068344 0.068344
0.054584 0.054584
0.041899 0.041899
0.030319 0.030319
0.019875 0.019875
0.010593 0.010593
0.0024956 0.0024956
-0.0043951 -0.0043951
-0.010061 -0.010061
-0.014487 -0.014487
-0.017658 -0.017658
-0.019566 -0.019566
-0.020202 -0.020202
-0.019565 -0.019565
-0.017657 -0.017657
-0.014485 -0.014485
-0.010059 -0.010059
-0.0043922 -0.0043922
0.0024991 0.0024991
0.010597 0.010597
0.01988 0.01988
0.030324 0.030324
0.041904 0.041904
0.05459 0.05459
0.06835 0.06835
0.08315 0.08315
0.098953 0.098953
0.11572 0.11572
0.13341 0.13341
0.15198 0.15198
0.17137 0.17137
0.19156 0.19156
0.21247 0.21247
0.23407 0.23407
0.25629 0.25629
0.27909 0.27909
0.3024 0.3024
0.32617 0.32617
0.35035 0.35035
0.37486 0.37486
0.39966 0.39966
0.42468 0.42468
0.44985 0.44985
0.47513 0.47513
0.50044 0.50044
0.52573 0.52573
0.55093 0.55093
0.57599 0.57599
0.60084 0.60084
0.62543 0.62543
0.64969 0.64969
0.67356 0.67356
0.697 0.697
0.71993 0.71993
0.74232 0.74232
0.7641 0.7641
0.78522 0.78522
0.80564 0.80564
0.82529 0.82529
0.84415 0.84415
0.86215 0.86215
0.87927 0.87927
0.89544 0.89544
0.91065 0.91065
0.92485 0.92485
0.93801 0.93801
0.95009 0.95009
0.96106 0.96106
0.9709 0.9709
0.97958 0.97958
0.98707 0.98707
0.99335 0.99335
0.9984 0.9984
1.0022 1.0022
1.0047 1.0047
1.0059 1.0059
1.0119 1.0119
1.0119 1.0119
1.0107 1.0107
1.0082 1.0082
1.0045 1.0045
0.99945 0.99945
0.99319 0.99319
0.98569 0.98569
0.97699 0.97699
0.96711 0.96711
0.95608 0.95608
0.94392 0.94392
0.93066 0.93066
0.91634 0.91634
0.90099 0.90099
0.88465 0.88465
0.86736 0.86736
0.84915 0.84915
0.83008 0.83008
0.81019 0.81019
0.78952 0.78952
0.76812 0.76812
0.74606 0.74606
0.72337 0.72337
0.70011 0.70011
0.67634 0.67634
0.65212 0.65212
0.6275 0.6275
0.60255 0.60255
0.57731 0.57731
0.55186 0.55186
0.52626 0.52626
0.50056 0.50056
0.47483 0.47483
0.44913 0.44913
0.42352 0.42352
0.39807 0.39807
0.37284 0.37284
0.34789 0.34789
0.32329 0.32329
0.29908 0.29908
0.27534 0.27534
0.25212 0.25212
0.22948 0.22948
0.20747 0.20747
0.18615 0.18615
0.16558 0.16558
0.1458 0.1458
0.12687 0.12687
0.10883 0.10883
0.091726 0.091726
0.075603 0.075603
0.060502 0.060502
0.046459 0.046459
0.033511 0.033511
0.021691 0.021691
0.011029 0.011029
0.0015512 0.0015512
-0.0067164 -0.0067164
-0.013752 -0.013752
-0.019537 -0.019537
-0.024055 -0.024055
-0.027293 -0.027293
-0.029239 -0.029239
-0.029889 -0.029889
-0.029238 -0.029238
-0.027291 -0.027291
-0.024053 -0.024053
-0.019534 -0.019534
-0.013748 -0.013748
-0.0067113 -0.0067113
0.001557 0.001557
0.011035 0.011035
0.021698 0.021698
0.033519 0.033519
0.046467 0.046467
0.06051 0.06051
0.075612 0.075612
0.091736 0.091736
0.10884 0.10884
0.12688 0.12688
0.14581 0.14581
0.16559 0.16559
0.18616 0.18616
0.20748 0.20748
0.22949 0.22949
0.25213 0.25213
0.27535 0.27535
0.29909 0.29909
0.32329 0.32329
0.3479 0.3479
0.37285 0.37285
0.39808 0.39808
0.42353 0.42353
0.44913 0.44913
0.47483 0.47483
0.50056 0.50056
0.52626 0.52626
0.55186 0.55186
0.57731 0.57731
0.60255 0.60255
0.6275 0.6275
0.65212 0.65212
0.67634 0.67634
0.70011 0.70011
0.72336 0.72336
0.74605 0.74605
0.76812 0.76812
0.78951 0.78951
0.81018 0.81018
0.83007 0.83007
0.84915 0.84915
0.86735 0.86735
0.88464 0.88464
0.90098 0.90098
0.91633 0.91633
0.93065 0.93065
0.94391 0.94391
0.95607 0.95607
0.96711 0.96711
0.97699 0.97699
0.98569 0.98569
0.99318 0.99318
0.99945 0.99945
1.0045 1.0045
1.0082 1.0082
1.0107 1.0107
1.0119 1.0119
1.0198 1.0198
1.0198 1.0198
1.0186 1.0186
1.0161 1.0161
1.0123 1.0123
1.0073 1.0073
1.001 1.001
0.99345 0.99345
0.98469 0.98469
0.97473 0.97473
0.96359 0.96359
0.9513 0.9513
0.93789 0.93789
0.92339 0.92339
0.90784 0.90784
0.89128 0.89128
0.87375 0.87375
0.85528 0.85528
0.83593 0.83593
0.81573 0.81573
0.79474 0.79474
0.773 0.773
0.75057 0.75057
0.72751 0.72751
0.70386 0.70386
0.67968 0.67968
0.65503 0.65503
0.62997 0.62997
0.60456 0.60456
0.57886 0.57886
0.55294 0.55294
0.52685 0.52685
0.50066 0.50066
0.47443 0.47443
0.44823 0.44823
0.42212 0.42212
0.39616 0.39616
0.37042 0.37042
0.34496 0.34496
0.31985 0.31985
0.29514 0.29514
0.2709 0.2709
0.24719 0.24719
0.22406 0.22406
0.20158 0.20158
0.1798 0.1798
0.15878 0.15878
0.13856 0.13856
0.11921 0.11921
0.10077 0.10077
0.083278 0.083278
0.066791 0.066791
0.051346 0.051346
0.036983 0.036983
0.023738 0.023738
0.011645 0.011645
0.0007367 0.0007367
-0.00896 -0.00896
-0.017419 -0.017419
-0.024618 -0.024618
-0.030536 -0.030536
-0.035158 -0.035158
-0.038469 -0.038469
-0.040459 -0.040459
-0.041123 -0.041123
-0.040458 -0.040458
-0.038466 -0.038466
-0.035154 -0.035154
-0.030531 -0.030531
-0.024612 -0.024612
-0.017412 -0.017412
-0.0089518 -0.0089518
0.00074577 0.00074577
0.011655 0.011655
0.023749 0.023749
0.036994 0.036994
0.051358 0.051358
0.066804 0.066804
0.083291 0.083291
0.10078 0.10078
0.11922 0.11922
0.13858 0.13858
0.15879 0.15879
0.17981 0.17981
0.20159 0.20159
0.22407 0.22407
0.2472 0.2472
0.27091 0.27091
0.29515 0.29515
0.31986 0.31986
0.34497 0.34497
0.37043 0.37043
0.39617 0.39617
0.42213 0.42213
0.44824 0.44824
0.47444 0.47444
0.50066 0.50066
0.52685 0.52685
0.55294 0.55294
0.57886 0.57886
0.60456 0.60456
0.62997 0.62997
0.65503 0.65503
0.67967 0.67967
0.70385 0.70385
0.7275 0.7275
0.75057 0.75057
0.77299 0.77299
0.79473 0.79473
0.81572 0.81572
0.83592 0.83592
0.85527 0.85527
0.87374 0.87374
0.89127 0.89127
0.90783 0.90783
0.92338 0.92338
0.93788 0.93788
0.95129 0.95129
0.96358 0.96358
0.97472 0.97472
0.98468 0.98468
0.99345 0.99345
1.001 1.001
1.0073 1.0073
1.0123 1.0123
1.0161 1.0161
1.0186 1.0186
1.0198 1.0198
1.0295 1.0295
1.0295 1.0295
1.0283 1.0283
1.0257 1.0257
1.0219 1.0219
1.0169 1.0169
1.0105 1.0105
1.0029 1.0029
0.99403 0.99403
0.98394 0.98394
0.97264 0.97264
0.96017 0.96017
0.94656 0.94656
0.93184 0.93184
0.91604 0.91604
0.8992 0.8992
0.88136 0.88136
0.86257 0.86257
0.84286 0.84286
0.82229 0.82229
0.8009 0.8009
0.77875 0.77875
0.75589 0.75589
0.73237 0.73237
0.70824 0.70824
0.68357 0.68357
0.65842 0.65842
0.63284 0.63284
0.6069 0.6069
0.58065 0.58065
0.55417 0.55417
0.52752 0.52752
0.50075 0.50075
0.47395 0.47395
0.44716 0.44716
0.42046 0.42046
0.39391 0.39391
0.36759 0.36759
0.34154 0.34154
0.31584 0.31584
0.29055 0.29055
0.26574 0.26574
0.24147 0.24147
0.21779 0.21779
0.19477 0.19477
0.17246 0.17246
0.15093 0.15093
0.13022 0.13022
0.11039 0.11039
0.091495 0.091495
0.073574 0.073574
0.056676 0.056676
0.040845 0.040845
0.026121 0.026121
0.012543 0.012543
0.00014575 0.00014575
-0.011038 -0.011038
-0.02098 -0.02098
-0.029653 -0.029653
-0.037033 -0.037033
-0.0431 -0.0431
-0.047837 -0.047837
-0.051231 -0.051231
-0.053271 -0.053271
-0.053951 -0.053951
-0.053269 -0.053269
-0.051228 -0.051228
-0.047833 -0.047833
-0.043094 -0.043094
-0.037025 -0.037025
-0.029643 -0.029643
-0.020969 -0.020969
-0.011027 -0.011027
0.00015884 0.00015884
0.012557 0.012557
0.026136 0.026136
0.040861 0.040861
0.056692 0.056692
0.073591 0.073591
0.091513 0.091513
0.11041 0.11041
0.13024 0.13024
0.15095 0.15095
0.17248 0.17248
0.19479 0.19479
0.21781 0.21781
0.24148 0.24148
0.26576 0.26576
0.29057 0.29057
0.31586 0.31586
0.34155 0.34155
0.3676 0.3676
0.39392 0.39392
0.42047 0.42047
0.44717 0.44717
0.47395 0.47395
0.50076 0.50076
0.52752 0.52752
0.55417 0.55417
0.58065 0.58065
0.6069 0.6069
0.63284 0.63284
0.65842 0.65842
0.68357 0.68357
0.70823 0.70823
0.73236 0.73236
0.75588 0.75588
0.77874 0.77874
0.80089 0.80089
0.82228 0.82228
0.84285 0.84285
0.86255 0.86255
0.88135 0.88135
0.89918 0.89918
0.91602 0.91602
0.93182 0.93182
0.94655 0.94655
0.96016 0.96016
0.97263 0.97263
0.98392 0.98392
0.99402 0.99402
1.0029 1.0029
1.0105 1.0105
1.0169 1.0169
1.0219 1.0219
1.0257 1.0257
1.0283 1.0283
1.0295 1.0295
1.0411 1.0411
1.0411 1.0411
1.0398 1.0398
1.0373 1.0373
1.0334 1.0334
1.0282 1.0282
1.0218 1.0218
1.014 1.014
1.005 1.005
0.99477 0.99477
0.98328 0.98328
0.97058 0.97058
0.95671 0.95671
0.94171 0.94171
0.92559 0.92559
0.90842 0.90842
0.89021 0.89021
0.87103 0.87103
0.8509 0.8509
0.82989 0.82989
0.80804 0.80804
0.78539 0.78539
0.76202 0.76202
0.73796 0.73796
0.71329 0.71329
0.68805 0.68805
0.66231 0.66231
0.63612 0.63612
0.60956 0.60956
0.58269 0.58269
0.55557 0.55557
0.52826 0.52826
0.50084 0.50084
0.47337 0.47337
0.44591 0.44591
0.41854 0.41854
0.39132 0.39132
0.36433 0.36433
0.33761 0.33761
0.31126 0.31126
0.28531 0.28531
0.25986 0.25986
0.23495 0.23495
0.21065 0.21065
0.18702 0.18702
0.16412 0.16412
0.14201 0.14201
0.12075 0.12075
0.10039 0.10039
0.080984 0.080984
0.062578 0.062578
0.045222 0.045222
0.028961 0.028961
0.013836 0.013836
-0.00011307 -0.00011307
-0.012849 -0.012849
-0.02434 -0.02434
-0.034553 -0.034553
-0.043463 -0.043463
-0.051044 -0.051044
-0.057277 -0.057277
-0.062143 -0.062143
-0.065628 -0.065628
-0.067724 -0.067724
-0.068422 -0.068422
-0.067721 -0.067721
-0.065624 -0.065624
-0.062137 -0.062137
-0.057269 -0.057269
-0.051034 -0.051034
-0.043451 -0.043451
-0.03454 -0.03454
-0.024324 -0.024324
-0.012833 -0.012833
-9.51e-05 -9.51e-05
0.013855 0.013855
0.028981 0.028981
0.045243 0.045243
0.0626 0.0626
0.081006 0.081006
0.10041 0.10041
0.12078 0.12078
0.14204 0.14204
0.16414 0.16414
0.18704 0.18704
0.21067 0.21067
0.23497 0.23497
0.25988 0.25988
0.28533 0.28533
0.31127 0.31127
0.33763 0.33763
0.36434 0.36434
0.39134 0.39134
0.41855 0.41855
0.44592 0.44592
0.47337 0.47337
0.50084 0.50084
0.52826 0.52826
0.55557 0.55557
0.58269 0.58269
0.60956 0.60956
0.63612 0.63612
0.6623 0.6623
0.68804 0.68804
0.71328 0.71328
0.73795 0.73795
0.76201 0.76201
0.78538 0.78538
0.80802 0.80802
0.82987 0.82987
0.85089 0.85089
0.87101 0.87101
0.89019 0.89019
0.9084 0.9084
0.92557 0.92557
0.94169 0.94169
0.95669 0.95669
0.97056 0.97056
0.98326 0.98326
0.99475 0.99475
1.005 1.005
1.014 1.014
1.0218 1.0218
1.0282 1.0282
1.0334 1.0334
1.0373 1.0373
1.0398 1.0398
1.0411 1.0411
1.0546 1.0546
1.0546 1.0546
1.0533 1.0533
1.0506 1.0506
1.0467 1.0467
1.0414 1.0414
1.0348 1.0348
1.0269 1.0269
1.0177 1.0177
1.0073 1.0073
0.99553 0.99553
0.98255 0.98255
0.96838 0.96838
0.95303 0.95303
0.93655 0.93655
0.91897 0.91897
0.90034 0.90034
0.88069 0.88069
0.86008 0.86008
0.83855 0.83855
0.81616 0.81616
0.79295 0.79295
0.76898 0.76898
0.74432 0.74432
0.719 0.719
0.69311 0.69311
0.6667 0.6667
0.63983 0.63983
0.61256 0.61256
0.58497 0.58497
0.55712 0.55712
0.52908 0.52908
0.50091 0.50091
0.47269 0.47269
0.44448 0.44448
0.41636 0.41636
0.38839 0.38839
0.36063 0.36063
0.33317 0.33317
0.30607 0.30607
0.2794 0.2794
0.25322 0.25322
0.2276 0.2276
0.20261 0.20261
0.1783 0.1783
0.15475 0.15475
0.132 0.132
0.11012 0.11012
0.089172 0.089172
0.069198 0.069198
0.050255 0.050255
0.032391 0.032391
0.015653 0.015653
8.4e-05 8.4e-05
-0.014275 -0.014275
-0.027386 -0.027386
-0.039214 -0.039214
-0.049728 -0.049728
-0.058899 -0.058899
-0.066703 -0.066703
-0.073118 -0.073118
-0.078126 -0.078126
-0.081713 -0.081713
-0.083869 -0.083869
-0.084588 -0.084588
-0.083867 -0.083867
-0.081708 -0.081708
-0.078118 -0.078118
-0.073108 -0.073108
-0.066691 -0.066691
-0.058884 -0.058884
-0.049711 -0.049711
-0.039195 -0.039195
-0.027365 -0.027365
-0.014253 -0.014253
0.00010765 0.00010765
0.015678 0.015678
0.032417 0.032417
0.050282 0.050282
0.069225 0.069225
0.089199 0.089199
0.11015 0.11015
0.13203 0.13203
0.15477 0.15477
0.17833 0.17833
0.20263 0.20263
0.22763 0.22763
0.25324 0.25324
0.27942 0.27942
0.30609 0.30609
0.33319 0.33319
0.36065 0.36065
0.3884 0.3884
0.41637 0.41637
0.44449 0.44449
0.4727 0.4727
0.50092 0.50092
0.52908 0.52908
0.55712 0.55712
0.58497 0.58497
0.61256 0.61256
0.63982 0.63982
0.66669 0.66669
0.6931 0.6931
0.71899 0.71899
0.7443 0.7443
0.76897 0.76897
0.79293 0.79293
0.81614 0.81614
0.83853 0.83853
0.86006 0.86006
0.88067 0.88067
0.90031 0.90031
0.91895 0.91895
0.93652 0.93652
0.95301 0.95301
0.96835 0.96835
0.98253 0.98253
0.9955 0.9955
1.0072 1.0072
1.0177 1.0177
1.0269 1.0269
1.0348 1.0348
1.0414 1.0414
1.0467 1.0467
1.0506 1.0506
1.0533 1.0533
1.0546 1.0546
1.0699 1.0699
1.0699 1.0699
1.0686 1.0686
1.0659 1.0659
1.0619 1.0619
1.0565 1.0565
1.0497 1.0497
1.0416 1.0416
1.0322 1.0322
1.0215 1.0215
1.0094 1.0094
0.99613 0.99613
0.98159 0.98159
0.96585 0.96585
0.94894 0.94894
0.9309 0.9309
0.91177 0.91177
0.89159 0.89159
0.87042 0.87042
0.84831 0.84831
0.8253 0.8253
0.80144 0.80144
0.77681 0.77681
0.75144 0.75144
0.72542 0.72542
0.69878 0.69878
0.67161 0.67161
0.64397 0.64397
0.61591 0.61591
0.58752 0.58752
0.55885 0.55885
0.52998 0.52998
0.50098 0.50098
0.47192 0.47192
0.44287 0.44287
0.4139 0.4139
0.38509 0.38509
0.3565 0.3565
0.32821 0.32821
0.30028 0.30028
0.27279 0.27279
0.24581 0.24581
0.21941 0.21941
0.19365 0.19365
0.16859 0.16859
0.14431 0.14431
0.12085 0.12085
0.098298 0.098298
0.076694 0.076694
0.056097 0.056097
0.036562 0.036562
0.018139 0.018139
0.00087614 0.00087614
-0.015181 -0.015181
-0.02999 -0.02999
-0.043513 -0.043513
-0.055712 -0.055712
-0.066556 -0.066556
-0.076015 -0.076015
-0.084063 -0.084063
-0.090679 -0.090679
-0.095843 -0.095843
-0.099542 -0.099542
-0.10177 -0.10177
-0.10251 -0.10251
-0.10176 -0.10176
-0.099536 -0.099536
-0.095834 -0.095834
-0.090667 -0.090667
-0.084048 -0.084048
-0.075997 -0.075997
-0.066536 -0.066536
-0.05569 -0.05569
-0.043488 -0.043488
-0.029964 -0.029964
-0.015152 -0.015152
0.00090621 0.00090621
0.01817 0.01817
0.036594 0.036594
0.05613 0.05613
0.076727 0.076727
0.098332 0.098332
0.12089 0.12089
0.14434 0.14434
0.16862 0.16862
0.19368 0.19368
0.21944 0.21944
0.24584 0.24584
0.27282 0.27282
0.30031 0.30031
0.32823 0.32823
0.35652 0.35652
0.38511 0.38511
0.41392 0.41392
0.44288 0.44288
0.47193 0.47193
0.50099 0.50099
0.52998 0.52998
0.55885 0.55885
0.58751 0.58751
0.61591 0.61591
0.64396 0.64396
0.6716 0.6716
0.69877 0.69877
0.7254 0.7254
0.75143 0.75143
0.77679 0.77679
0.80142 0.80142
0.82527 0.82527
0.84828 0.84828
0.8704 0.8704
0.89156 0.89156
0.91174 0.91174
0.93087 0.93087
0.94891 0.94891
0.96582 0.96582
0.98156 0.98156
0.9961 0.9961
1.0094 1.0094
1.0214 1.0214
1.0322 1.0322
1.0416 1.0416
1.0497 1.0497
1.0565 1.0565
1.0619 1.0619
1.0659 1.0659
1.0686 1.0686
1.0699 1.0699
1.0873 1.0873
1.0873 1.0873
1.0859 1.0859
1.0831 1.0831
1.079 1.079
1.0734 1.0734
1.0665 1.0665
1.0581 1.0581
1.0485 1.0485
1.0374 1.0374
1.025 1.025
1.0114 1.0114
0.9964 0.9964
0.9802 0.9802
0.9628 0.9628
0.94423 0.94423
0.92454 0.92454
0.90377 0.90377
0.88197 0.88197
0.85919 0.85919
0.83548 0.83548
0.8109 0.8109
0.78551 0.78551
0.75937 0.75937
0.73254 0.73254
0.70508 0.70508
0.67707 0.67707
0.64855 0.64855
0.61962 0.61962
0.59033 0.59033
0.56075 0.56075
0.53097 0.53097
0.50104 0.50104
0.47105 0.47105
0.44107 0.44107
0.41116 0.41116
0.38142 0.38142
0.3519 0.3519
0.32269 0.32269
0.29386 0.29386
0.26548 0.26548
0.23761 0.23761
0.21034 0.21034
0.18373 0.18373
0.15785 0.15785
0.13277 0.13277
0.10854 0.10854
0.085238 0.085238
0.062917 0.062917
0.041638 0.041638
0.021453 0.021453
0.002418 0.002418
-0.015419 -0.015419
-0.032011 -0.032011
-0.047313 -0.047313
-0.061286 -0.061286
-0.073892 -0.073892
-0.085096 -0.085096
-0.09487 -0.09487
-0.10319 -0.10319
-0.11002 -0.11002
-0.11536 -0.11536
-0.11918 -0.11918
-0.12147 -0.12147
-0.12224 -0.12224
-0.12147 -0.12147
-0.11917 -0.11917
-0.11535 -0.11535
-0.11001 -0.11001
-0.10317 -0.10317
-0.094849 -0.094849
-0.085072 -0.085072
-0.073865 -0.073865
-0.061256 -0.061256
-0.047281 -0.047281
-0.031977 -0.031977
-0.015383 -0.015383
0.0024552 0.0024552
0.021492 0.021492
0.041677 0.041677
0.062957 0.062957
0.085278 0.085278
0.10858 0.10858
0.13281 0.13281
0.15789 0.15789
0.18377 0.18377
0.21038 0.21038
0.23765 0.23765
0.26551 0.26551
0.29389 0.29389
0.32272 0.32272
0.35193 0.35193
0.38144 0.38144
0.41118 0.41118
0.44108 0.44108
0.47106 0.47106
0.50105 0.50105
0.53097 0.53097
0.56075 0.56075
0.59032 0.59032
0.61961 0.61961
0.64854 0.64854
0.67705 0.67705
0.70507 0.70507
0.73252 0.73252
0.75935 0.75935
0.78549 0.78549
0.81088 0.81088
0.83545 0.83545
0.85915 0.85915
0.88193 0.88193
0.90373 0.90373
0.9245 0.9245
0.94419 0.94419
0.96276 0.96276
0.98016 0.98016
0.99636 0.99636
1.0113 1.0113
1.025 1.025
1.0374 1.0374
1.0484 1.0484
1.0581 1.0581
1.0664 1.0664
1.0734 1.0734
1.0789 1.0789
1.0831 1.0831
1.0859 1.0859
1.0873 1.0873
1.1066 1.1066
1.1066 1.1066
1.1052 1.1052
1.1023 1.1023
1.098 1.098
1.0923 1.0923
1.0851 1.0851
1.0765 1.0765
1.0665 1.0665
1.0551 1.0551
1.0424 1.0424
1.0283 1.0283
1.0128 1.0128
0.99614 0.99614
0.97818 0.97818
0.95902 0.95902
0.93869 0.93869
0.91725 0.91725
0.89475 0.89475
0.87123 0.87123
0.84674 0.84674
0.82136 0.82136
0.79513 0.79513
0.76813 0.76813
0.7404 0.7404
0.71203 0.71203
0.68307 0.68307
0.65361 0.65361
0.62369 0.62369
0.59341 0.59341
0.56284 0.56284
0.53204 0.53204
0.50109 0.50109
0.47008 0.47008
0.43907 0.43907
0.40814 0.40814
0.37737 0.37737
0.34684 0.34684
0.31662 0.31662
0.28679 0.28679
0.25742 0.25742
0.22859 0.22859
0.20037 0.20037
0.17283 0.17283
0.14605 0.14605
0.12009 0.12009
0.095019 0.095019
0.0709 0.0709
0.047798 0.047798
0.025772 0.025772
0.0048801 0.0048801
-0.014824 -0.014824
-0.033287 -0.033287
-0.050461 -0.050461
-0.066301 -0.066301
-0.080765 -0.080765
-0.093813 -0.093813
-0.10541 -0.10541
-0.11553 -0.11553
-0.12413 -0.12413
-0.13121 -0.13121
-0.13673 -0.13673
-0.14068 -0.14068
-0.14306 -0.14306
-0.14385 -0.14385
-0.14306 -0.14306
-0.14068 -0.14068
-0.13672 -0.13672
-0.13119 -0.13119
-0.12411 -0.12411
-0.1155 -0.1155
-0.10538 -0.10538
-0.093781 -0.093781
-0.08073 -0.08073
-0.066264 -0.066264
-0.050422 -0.050422
-0.033245 -0.033245
-0.01478 -0.01478
0.004925 0.004925
0.025818 0.025818
0.047845 0.047845
0.070947 0.070947
0.095065 0.095065
0.12014 0.12014
0.1461 0.1461
0.17288 0.17288
0.20041 0.20041
0.22863 0.22863
0.25746 0.25746
0.28682 0.28682
0.31665 0.31665
0.34687 0.34687
0.3774 0.3774
0.40816 0.40816
0.43908 0.43908
0.47009 0.47009
0.5011 0.5011
0.53204 0.53204
0.56284 0.56284
0.59341 0.59341
0.62369 0.62369
0.65359 0.65359
0.68306 0.68306
0.71201 0.71201
0.74038 0.74038
0.7681 0.7681
0.7951 0.7951
0.82133 0.82133
0.84671 0.84671
0.87119 0.87119
0.89471 0.89471
0.91721 0.91721
0.93865 0.93865
0.95897 0.95897
0.97813 0.97813
0.99609 0.99609
1.0128 1.0128
1.0282 1.0282
1.0423 1.0423
1.0551 1.0551
1.0665 1.0665
1.0765 1.0765
1.0851 1.0851
1.0923 1.0923
1.098 1.098
1.1023 1.1023
1.1052 1.1052
1.1066 1.1066
1.1279 1.1279
1.128 1.128
1.1265 1.1265
1.1235 1.1235
1.1191 1.1191
1.1131 1.1131
1.1057 1.1057
1.0968 1.0968
1.0865 1.0865
1.0747 1.0747
1.0615 1.0615
1.0469 1.0469
1.031 1.031
1.0137 1.0137
0.99513 0.99513
0.9753 0.9753
0.95428 0.95428
0.93209 0.93209
0.9088 0.9088
0.88446 0.88446
0.85912 0.85912
0.83285 0.83285
0.8057 0.8057
0.77774 0.77774
0.74903 0.74903
0.71965 0.71965
0.68966 0.68966
0.65914 0.65914
0.62816 0.62816
0.59679 0.59679
0.56511 0.56511
0.5332 0.5332
0.50114 0.50114
0.469 0.469
0.43687 0.43687
0.40482 0.40482
0.37293 0.37293
0.34129 0.34129
0.30997 0.30997
0.27905 0.27905
0.2486 0.2486
0.21872 0.21872
0.18947 0.18947
0.16092 0.16092
0.13315 0.13315
0.10624 0.10624
0.080244 0.080244
0.055239 0.055239
0.031286 0.031286
0.0084492 0.0084492
-0.013213 -0.013213
-0.033642 -0.033642
-0.052786 -0.052786
-0.070593 -0.070593
-0.087017 -0.087017
-0.10201 -0.10201
-0.11554 -0.11554
-0.12757 -0.12757
-0.13805 -0.13805
-0.14698 -0.14698
-0.15431 -0.15431
-0.16004 -0.16004
-0.16414 -0.16414
-0.1666 -0.1666
-0.16742 -0.16742
-0.16659 -0.16659
-0.16413 -0.16413
-0.16002 -0.16002
-0.15429 -0.15429
-0.14695 -0.14695
-0.13803 -0.13803
-0.12753 -0.12753
-0.11551 -0.11551
-0.10197 -0.10197
-0.086974 -0.086974
-0.070547 -0.070547
-0.052738 -0.052738
-0.033592 -0.033592
-0.013161 -0.013161
0.0085023 0.0085023
0.03134 0.03134
0.055293 0.055293
0.080298 0.080298
0.10629 0.10629
0.1332 0.1332
0.16097 0.16097
0.18951 0.18951
0.21876 0.21876
0.24865 0.24865
0.27909 0.27909
0.31 0.31
0.34132 0.34132
0.37296 0.37296
0.40484 0.40484
0.43689 0.43689
0.46902 0.46902
0.50115 0.50115
0.53321 0.53321
0.56511 0.56511
0.59678 0.59678
0.62815 0.62815
0.65912 0.65912
0.68964 0.68964
0.71962 0.71962
0.749 0.749
0.7777 0.7777
0.80566 0.80566
0.83281 0.83281
0.85908 0.85908
0.88441 0.88441
0.90875 0.90875
0.93204 0.93204
0.95423 0.95423
0.97525 0.97525
0.99507 0.99507
1.0136 1.0136
1.0309 1.0309
1.0469 1.0469
1.0615 1.0615
1.0747 1.0747
1.0865 1.0865
1.0968 1.0968
1.1057 1.1057
1.1131 1.1131
1.119 1.119
1.1235 1.1235
1.1265 1.1265
1.1279 1.1279
1.1514 1.1514
1.1514 1.1514
1.1499 1.1499
1.1468 1.1468
1.1422 1.1422
1.136 1.136
1.1284 1.1284
1.1192 1.1192
1.1084 1.1084
1.0962 1.0962
1.0825 1.0825
1.0674 1.0674
1.0509 1.0509
1.0329 1.0329
1.0137 1.0137
0.99314 0.99314
0.97134 0.97134
0.94833 0.94833
0.92418 0.92418
0.89893 0.89893
0.87265 0.87265
0.8454 0.8454
0.81723 0.81723
0.78823 0.78823
0.75844 0.75844
0.72796 0.72796
0.69684 0.69684
0.66517 0.66517
0.63302 0.63302
0.60046 0.60046
0.56758 0.56758
0.53446 0.53446
0.50118 0.50118
0.46782 0.46782
0.43446 0.43446
0.40119 0.40119
0.36808 0.36808
0.33523 0.33523
0.30271 0.30271
0.27061 0.27061
0.239 0.239
0.20797 0.20797
0.17759 0.17759
0.14795 0.14795
0.11911 0.11911
0.091164 0.091164
0.06417 0.06417
0.038203 0.038203
0.013328 0.013328
-0.010388 -0.010388
-0.032883 -0.032883
-0.054099 -0.054099
-0.07398 -0.07398
-0.092472 -0.092472
-0.10953 -0.10953
-0.1251 -0.1251
-0.13915 -0.13915
-0.15164 -0.15164
-0.16253 -0.16253
-0.17179 -0.17179
-0.17941 -0.17941
-0.18535 -0.18535
-0.18961 -0.18961
-0.19217 -0.19217
-0.19302 -0.19302
-0.19216 -0.19216
-0.1896 -0.1896
-0.18534 -0.18534
-0.17939 -0.17939
-0.17177 -0.17177
-0.16249 -0.16249
-0.1516 -0.1516
-0.13911 -0.13911
-0.12506 -0.12506
-0.10948 -0.10948
-0.09242 -0.09242
-0.073925 -0.073925
-0.054042 -0.054042
-0.032824 -0.032824
-0.010327 -0.010327
0.01339 0.01339
0.038265 0.038265
0.064232 0.064232
0.091225 0.091225
0.11917 0.11917
0.148 0.148
0.17764 0.17764
0.20802 0.20802
0.23905 0.23905
0.27065 0.27065
0.30275 0.30275
0.33527 0.33527
0.36812 0.36812
0.40122 0.40122
0.43448 0.43448
0.46784 0.46784
0.50119 0.50119
0.53447 0.53447
0.56758 0.56758
0.60046 0.60046
0.633 0.633
0.66515 0.66515
0.69682 0.69682
0.72793 0.72793
0.75841 0.75841
0.78819 0.78819
0.81719 0.81719
0.84535 0.84535
0.8726 0.8726
0.89888 0.89888
0.92412 0.92412
0.94827 0.94827
0.97128 0.97128
0.99308 0.99308
1.0136 1.0136
1.0329 1.0329
1.0508 1.0508
1.0673 1.0673
1.0825 1.0825
1.0962 1.0962
1.1084 1.1084
1.1191 1.1191
1.1283 1.1283
1.136 1.136
1.1422 1.1422
1.1468 1.1468
1.1499 1.1499
1.1514 1.1514
1.177 1.177
1.1771 1.1771
1.1755 1.1755
1.1723 1.1723
1.1675 1.1675
1.1611 1.1611
1.1531 1.1531
1.1435 1.1435
1.1324 1.1324
1.1197 1.1197
1.1055 1.1055
1.0897 1.0897
1.0726 1.0726
1.0539 1.0539
1.0339 1.0339
1.0126 1.0126
0.98993 0.98993
0.96603 0.96603
0.94093 0.94093
0.9147 0.9147
0.88738 0.88738
0.85906 0.85906
0.82979 0.82979
0.79964 0.79964
0.76868 0.76868
0.73699 0.73699
0.70464 0.70464
0.67172 0.67172
0.63829 0.63829
0.60444 0.60444
0.57026 0.57026
0.53582 0.53582
0.50122 0.50122
0.46653 0.46653
0.43184 0.43184
0.39724 0.39724
0.36282 0.36282
0.32865 0.32865
0.29483 0.29483
0.26144 0.26144
0.22857 0.22857
0.1963 0.1963
0.16471 0.16471
0.13388 0.13388
0.10389 0.10389
0.07482 0.07482