VARIABLES = "Xctr", "Yctr", "xSds", "ySds", "xSnorm","ySnorm", "xWds", "yWds","xWnorm", "yWnorm", "xInorm", "yInorm", "xJnorm", "yJnorm" 
ZONE T = "Grid center vals ", I = 129 , J = 64, F=POINT 

0.999675 -0.000312425 8.62e-05 -0.0006 0.142207 -0.989837 0 0.00035 0 1 -0.487057 0.386973 0.571103 -0.494919
0.998715 -0.00110145 0.00025799 -0.00181 0.14111 -0.989994 -0.0010773 -0.00025 -0.974115 -0.226055 -0.971519 -0.236709 0.448242 -0.822644
0.996465 -0.00215532 0.00042789 -0.003 0.141201 -0.989981 -0.00246771 -0.00063 -0.968923 -0.247363 -0.97259 -0.231988 0.352206 -0.908147
0.99297 -0.00339274 0.00059502 -0.0042 0.140271 -0.990113 -0.00392102 -0.00087 -0.976258 -0.216613 -0.978842 -0.204227 0.296894 -0.940681
0.988263 -0.0047892 0.0007579 -0.00537 0.139751 -0.990187 -0.0053716 -0.00105 -0.981426 -0.191842 -0.983353 -0.181396 0.262481 -0.956508
0.982363 -0.00633395 0.0009158 -0.00655 0.13847 -0.990367 -0.006801 -0.00118 -0.98528 -0.17095 -0.98657 -0.163148 0.238569 -0.965636
0.97529 -0.00801908 0.0010677 -0.0077 0.137348 -0.990523 -0.0082032 -0.00129 -0.98786 -0.155347 -0.988743 -0.149509 0.22146 -0.971346
0.96707 -0.00983662 0.0012125 -0.00883 0.136039 -0.990703 -0.0095745 -0.00139 -0.989625 -0.143671 -0.990337 -0.138584 0.207965 -0.975368
0.957717 -0.0117785 0.0013499 -0.00995 0.134437 -0.990922 -0.010913 -0.00147 -0.991049 -0.133496 -0.991599 -0.12928 0.196932 -0.978343
0.947258 -0.0138359 0.0014787 -0.01103 0.132873 -0.991133 -0.0122171 -0.00154 -0.992149 -0.125063 -0.992635 -0.121079 0.187787 -0.980617
0.935717 -0.015999 0.0015988 -0.0121 0.130994 -0.991383 -0.0134854 -0.00159 -0.993121 -0.117094 -0.993484 -0.113931 0.179737 -0.982466
0.923125 -0.0182576 0.0017096 -0.01313 0.129116 -0.99163 -0.0147146 -0.00164 -0.993846 -0.110768 -0.994156 -0.107912 0.172636 -0.983994
0.90951 -0.0206008 0.00181 -0.01413 0.127058 -0.991895 -0.015903 -0.00168 -0.994466 -0.105056 -0.994766 -0.102141 0.166019 -0.985331
0.894907 -0.023018 0.001902 -0.01509 0.125054 -0.99215 -0.017048 -0.0017 -0.995065 -0.0992263 -0.995328 -0.096518 0.160147 -0.986453
0.879352 -0.0254985 0.001982 -0.01603 0.122709 -0.992443 -0.018148 -0.00171 -0.99559 -0.0938097 -0.995801 -0.0915133 0.154454 -0.987477
0.862875 -0.02803 0.002052 -0.01693 0.120324 -0.992735 -0.019202 -0.00172 -0.996012 -0.0892168 -0.996204 -0.0870166 0.148981 -0.988415
0.84552 -0.030601 0.002112 -0.01777 0.118021 -0.993011 -0.020206 -0.00172 -0.996397 -0.0848165 -0.996592 -0.0824531 0.143877 -0.989251
0.827333 -0.0332005 0.002162 -0.01858 0.115582 -0.993298 -0.021158 -0.0017 -0.996788 -0.0800898 -0.996967 -0.077795 0.138915 -0.990024
0.80835 -0.035817 0.002201 -0.01935 0.113018 -0.993593 -0.022056 -0.00167 -0.997146 -0.0755002 -0.997311 -0.0732529 0.134028 -0.990751
0.78862 -0.0384383 0.002228 -0.02007 0.110334 -0.993895 -0.022898 -0.00163 -0.997476 -0.0710056 -0.997615 -0.0689958 0.129253 -0.991428
0.768195 -0.0410522 0.002245 -0.02073 0.107668 -0.994187 -0.023683 -0.00159 -0.997754 -0.066986 -0.997898 -0.0647738 0.124544 -0.992068
0.74712 -0.0436475 0.002252 -0.02135 0.104898 -0.994483 -0.024408 -0.00153 -0.998041 -0.0625616 -0.998186 -0.0601516 0.119818 -0.992682
0.725445 -0.0462117 0.002246 -0.02192 0.10193 -0.994792 -0.02507 -0.00145 -0.998332 -0.0577416 -0.998455 -0.0555187 0.11509 -0.993267
0.703222 -0.048733 0.00223 -0.02244 0.098889 -0.995098 -0.025669 -0.00137 -0.998579 -0.0532959 -0.998694 -0.0510436 0.110328 -0.993829
0.680505 -0.0511993 0.002202 -0.0229 0.0957157 -0.995409 -0.026203 -0.00128 -0.998809 -0.0487912 -0.998916 -0.0464962 0.105493 -0.994371
0.65735 -0.0535975 0.002162 -0.0233 0.0923928 -0.995723 -0.02667 -0.00118 -0.999023 -0.0442012 -0.999128 -0.0416659 0.100527 -0.994901
0.633815 -0.055915 0.002108 -0.02365 0.0887812 -0.996051 -0.027068 -0.00106 -0.999234 -0.0391306 -0.999323 -0.0367085 0.0954475 -0.995412
0.609955 -0.0581393 0.002044 -0.02394 0.0850706 -0.996375 -0.0274 -0.00094 -0.999412 -0.0342864 -0.999497 -0.0315979 0.0901788 -0.995912
0.585823 -0.060257 0.001966 -0.02418 0.0810394 -0.996711 -0.027661 -0.0008 -0.999582 -0.0289095 -0.999655 -0.0261208 0.0846542 -0.996404
0.561478 -0.0622547 0.001874 -0.02436 0.0767028 -0.997054 -0.027851 -0.00065 -0.999728 -0.0233321 -0.999784 -0.0206021 0.0789149 -0.996879
0.53698 -0.0641193 0.00177 -0.02448 0.0721157 -0.997396 -0.027972 -0.0005 -0.99984 -0.0178722 -0.999883 -0.0150025 0.0728692 -0.997341
0.51239 -0.0658367 0.00165 -0.02453 0.0671129 -0.997745 -0.028021 -0.00034 -0.999926 -0.0121329 -0.999955 -0.00892332 0.0664876 -0.997787
0.48777 -0.067394 0.001519 -0.02453 0.0618058 -0.998088 -0.028002 -0.00016 -0.999984 -0.00571378 -0.999992 -0.00249862 0.0597701 -0.99821
0.463172 -0.0687772 0.001372 -0.02448 0.0559579 -0.998433 -0.027912 2e-05 -1 0.000716538 -0.999986 0.00414154 0.0525338 -0.998613
0.438658 -0.0699733 0.001213 -0.02436 0.0497331 -0.998763 -0.027753 0.00021 -0.999971 0.00756653 -0.999933 0.0110484 0.0449319 -0.998978
0.414287 -0.0709695 0.001039 -0.02418 0.0429298 -0.999078 -0.027526 0.0004 -0.999894 0.0145302 -0.999822 0.0184615 0.0367714 -0.999305
0.390122 -0.0717533 0.000854 -0.02394 0.0356498 -0.999364 -0.027234 0.00061 -0.999749 0.0223929 -0.999642 0.0264451 0.0280712 -0.999577
0.36622 -0.0723135 0.000657 -0.02365 0.0277694 -0.999614 -0.026875 0.00082 -0.999535 0.0304974 -0.999381 0.034891 0.018807 -0.999783
0.342635 -0.0726395 0.000448 -0.0233 0.0192239 -0.999815 -0.026453 0.00104 -0.999228 0.0392847 -0.999027 0.0438735 0.00884665 -0.999907
0.319425 -0.072721 0.000229 -0.0229 0.0099995 -0.99995 -0.025969 0.00126 -0.998825 0.0484624 -0.998568 0.0532872 -0.0018119 -0.999929
0.296642 -0.0725497 2e-06 -0.02244 8.91266e-05 -1 -0.025425 0.00148 -0.99831 0.0581121 -0.997973 0.0634198 -0.0132062 -0.999824
0.27435 -0.0721187 -0.000233 -0.02192 -0.010629 -0.999944 -0.024822 0.00171 -0.997635 0.0687276 -0.99723 0.0741741 -0.0254427 -0.999566
0.2526 -0.0714225 -0.000474 -0.02135 -0.0221959 -0.999754 -0.024163 0.00193 -0.996825 0.0796206 -0.996286 0.0858802 -0.038523 -0.999124
0.23144 -0.0704572 -0.000718 -0.02074 -0.0345984 -0.999401 -0.023451 0.00217 -0.995746 0.0921397 -0.995121 0.0984556 -0.0525879 -0.998454
0.210927 -0.0692205 -0.000966 -0.02006 -0.0480998 -0.998843 -0.022686 0.00239 -0.994496 0.104771 -0.993699 0.111855 -0.067746 -0.997508
0.19111 -0.0677118 -0.001214 -0.01935 -0.0626159 -0.998038 -0.021872 0.00262 -0.992902 0.118938 -0.991945 0.126443 -0.0840273 -0.996232
0.172035 -0.0659325 -0.00146 -0.01858 -0.0783376 -0.996927 -0.021011 0.00284 -0.990988 0.133949 -0.9898 0.142216 -0.101654 -0.994544
0.15375 -0.063886 -0.001704 -0.01777 -0.0954541 -0.995434 -0.020103 0.00306 -0.988613 0.150483 -0.987132 0.159639 -0.1207 -0.992363
0.136295 -0.0615773 -0.001942 -0.01693 -0.11396 -0.993485 -0.019153 0.00328 -0.985651 0.168795 -0.98389 0.1785 -0.141418 -0.989561
0.119715 -0.059013 -0.002174 -0.01603 -0.13439 -0.990928 -0.01816 0.00348 -0.98213 0.188205 -0.979909 0.199132 -0.164091 -0.985986
0.104053 -0.0562012 -0.002399 -0.015094 -0.156967 -0.987604 -0.017128 0.00368 -0.977689 0.210059 -0.974874 0.222398 -0.189068 -0.98142
0.0893455 -0.0531515 -0.002614 -0.014131 -0.181897 -0.983318 -0.016059 0.003878 -0.972059 0.234737 -0.968547 0.248428 -0.216642 -0.975602
0.0756255 -0.0498753 -0.002818 -0.013129 -0.20986 -0.977732 -0.014955 0.004062 -0.965036 0.262118 -0.96054 0.277669 -0.247397 -0.968139
0.0629278 -0.0463838 -0.003012 -0.012097 -0.241611 -0.970373 -0.013818 0.004238 -0.956045 0.29322 -0.950255 0.310915 -0.282193 -0.958425
0.0512832 -0.0426892 -0.003194 -0.011034 -0.278054 -0.960565 -0.012649 0.004401 -0.944466 0.32861 -0.936845 0.349063 -0.321713 -0.945714
0.04072 -0.0388057 -0.003363 -0.009945 -0.32034 -0.947303 -0.011452 0.004554 -0.929225 0.369515 -0.919015 0.393368 -0.367109 -0.928818
0.0312637 -0.034746 -0.003522 -0.008832 -0.370411 -0.928868 -0.010229 0.004696 -0.908805 0.417221 -0.894884 0.445204 -0.42007 -0.905839
0.0229377 -0.0305232 -0.003667 -0.007698 -0.430056 -0.902802 -0.008983 0.004825 -0.880962 0.473187 -0.861573 0.506189 -0.482004 -0.874158
0.0157616 -0.026151 -0.003802 -0.006546 -0.502244 -0.864726 -0.007716 0.00494 -0.842184 0.53919 -0.814614 0.578043 -0.554946 -0.829466
0.00975305 -0.0216417 -0.003927 -0.0053767 -0.589808 -0.807543 -0.006432 0.0050415 -0.787044 0.616897 -0.747354 0.661723 -0.640359 -0.765242
0.00492719 -0.017008 -0.004042 -0.0041956 -0.693801 -0.720166 -0.005137 0.0051289 -0.707664 0.706549 -0.650591 0.755684 -0.737627 -0.672066
0.00129595 -0.012262 -0.004149 -0.0030041 -0.809974 -0.586465 -0.003835 0.00520032 -0.593518 0.80482 -0.514019 0.852742 -0.841007 -0.537951
-0.00113098 -0.007416 -0.0042498 -0.00180532 -0.920397 -0.390986 -0.002535 0.0052545 -0.434519 0.900663 -0.332135 0.936956 -0.934679 -0.35319
-0.00234645 -0.00248472 -0.0043452 -0.00060228 -0.99053 -0.137296 -0.0012486 0.00528918 -0.229752 0.973249 -0.114865 0.986625 -0.992277 -0.123227
-0.00234641 0.00248483 -0.0043452 0.00060228 -0.99053 0.137296 1.18e-07 0.0053012 2.22591e-05 1 0.114909 0.98662 -0.992275 0.123245
-0.00113086 0.00741605 -0.0042498 0.00180532 -0.920397 0.390986 0.0012488 0.00528898 0.229795 0.973239 0.332167 0.936946 -0.934674 0.353203
0.00129613 0.012262 -0.004149 0.0030041 -0.809974 0.586465 0.002535 0.0052542 0.434539 0.900653 0.514045 0.852724 -0.841002 0.53796
0.00492746 0.017008 -0.004042 0.0041956 -0.693801 0.720166 0.003835 0.00519987 0.593552 0.804796 0.650629 0.755652 -0.737621 0.672073
0.00975337 0.0216418 -0.003927 0.0053767 -0.589808 0.807543 0.005137 0.0051283 0.707706 0.706507 0.747396 0.661676 -0.640356 0.765245
0.015762 0.0261508 -0.003802 0.006546 -0.502244 0.864726 0.006432 0.0050408 0.787085 0.616844 0.814644 0.578003 -0.554899 0.829502
0.0229383 0.0305228 -0.003667 0.007698 -0.430056 0.902802 0.007715 0.004939 0.842202 0.539162 0.861591 0.506157 -0.482004 0.874158
0.0312643 0.0347452 -0.003522 0.008832 -0.370411 0.928868 0.008982 0.004824 0.880981 0.473152 0.894894 0.445183 -0.420032 0.90586
0.0407205 0.038805 -0.003363 0.009945 -0.32034 0.947303 0.010227 0.004695 0.908808 0.417215 0.919025 0.393344 -0.367146 0.928801
0.0512837 0.0426885 -0.003194 0.011034 -0.278054 0.960565 0.011451 0.004553 0.929241 0.369473 0.936857 0.349032 -0.321677 0.945728
0.0629285 0.0463825 -0.003012 0.012097 -0.241611 0.970373 0.012647 0.0044 0.944473 0.32859 0.950269 0.310871 -0.282146 0.95844
0.0756263 0.049874 -0.002818 0.013129 -0.20986 0.977732 0.013815 0.004236 0.956066 0.293152 0.960555 0.277621 -0.24744 0.968126
0.0893463 0.0531502 -0.002614 0.014131 -0.181897 0.983318 0.014953 0.004061 0.965043 0.262091 0.96856 0.248377 -0.216602 0.975612
0.104054 0.0561998 -0.002399 0.015094 -0.156967 0.987604 0.016056 0.003876 0.972076 0.234664 0.974879 0.222379 -0.189082 0.981417
0.119715 0.0590112 -0.002174 0.01603 -0.13439 0.990928 0.017125 0.00368 0.977681 0.210094 0.979902 0.19917 -0.164061 0.985991
0.136295 0.061575 -0.001942 0.01693 -0.11396 0.993485 0.018156 0.00348 0.982122 0.188245 0.983883 0.178542 -0.14139 0.989566
0.15375 0.0638835 -0.001704 0.01777 -0.0954541 0.995434 0.019148 0.00328 0.985644 0.168838 0.987125 0.159679 -0.1207 0.992363
0.172035 0.0659297 -0.00146 0.01858 -0.0783376 0.996927 0.020098 0.00306 0.988607 0.150519 0.989795 0.142253 -0.101628 0.994547
0.19111 0.0677088 -0.001214 0.01935 -0.0626159 0.998038 0.021005 0.00284 0.990983 0.133987 0.991941 0.126478 -0.0840273 0.996232
0.210928 0.0692175 -0.000966 0.02006 -0.0480998 0.998843 0.021866 0.00262 0.992898 0.11897 0.993696 0.111884 -0.067746 0.997508
0.231442 0.070454 -0.000718 0.02074 -0.0345984 0.999401 0.02268 0.00239 0.994493 0.104799 0.995138 0.0982724 -0.0525475 0.998457
0.252603 0.071419 -0.000474 0.02135 -0.0221959 0.999754 0.023444 0.00216 0.995782 0.0917459 0.996303 0.0856947 -0.0385357 0.999123
0.274352 0.072115 -0.000233 0.02192 -0.010629 0.999944 0.024156 0.00193 0.996823 0.0796435 0.997242 0.0739965 -0.0254111 0.999568
0.296645 0.0725455 2e-06 0.02244 8.91266e-05 1 0.024814 0.0017 0.997661 0.0683495 0.997985 0.063241 -0.01319 0.999825
0.319425 0.0727165 0.000229 0.0229 0.0099995 0.99995 0.025416 0.00148 0.998309 0.0581326 0.998567 0.0533058 -0.0018119 0.999929
0.342635 0.072635 0.000448 0.0233 0.0192239 0.999815 0.02596 0.00126 0.998824 0.0484791 0.999026 0.0438886 0.00884665 0.999907
0.36622 0.072309 0.000657 0.02365 0.0277694 0.999614 0.026444 0.00104 0.999228 0.039298 0.999381 0.0349028 0.018807 0.999783
0.390122 0.0717485 0.000854 0.02394 0.0356498 0.999364 0.026866 0.00082 0.999535 0.0305076 0.999642 0.0264544 0.0280919 0.999577
0.414288 0.0709645 0.001039 0.02418 0.0429298 0.999078 0.027224 0.00061 0.999749 0.0224011 0.999822 0.0184683 0.0367714 0.999305
0.438657 0.0699683 0.001213 0.02436 0.0497331 0.998763 0.027516 0.0004 0.999894 0.0145355 0.999933 0.0110524 0.0449319 0.998978
0.463172 0.068772 0.001372 0.02448 0.0559579 0.998433 0.027743 0.00021 0.999971 0.00756926 0.999986 0.00414304 0.052554 0.998612
0.48777 0.0673887 0.001519 0.02453 0.0618058 0.998088 0.027901 2e-05 1 0.00071682 0.999992 -0.0024995 0.0597499 0.998211
0.51239 0.0658317 0.00165 0.02453 0.0671129 0.997745 0.027992 -0.00016 0.999984 -0.00571583 0.999955 -0.00892651 0.0664876 0.997787
0.53698 0.064114 0.00177 0.02448 0.0721157 0.997396 0.028011 -0.00034 0.999926 -0.0121372 0.999883 -0.0150082 0.0728893 0.99734
0.561478 0.0622495 0.001874 0.02436 0.0767028 0.997054 0.027961 -0.0005 0.99984 -0.0178792 0.999784 -0.0206098 0.0788947 0.996881
0.585823 0.0602517 0.001966 0.02418 0.0810394 0.996711 0.027841 -0.00065 0.999728 -0.0233405 0.999655 -0.0261307 0.0846745 0.996402
0.609955 0.058134 0.002044 0.02394 0.0850706 0.996375 0.02765 -0.0008 0.999582 -0.028921 0.999497 -0.0316099 0.0901583 0.995914
0.633815 0.05591 0.002108 0.02365 0.0887812 0.996051 0.02739 -0.00094 0.999412 -0.0342989 0.999323 -0.036722 0.0954475 0.995412
0.65735 0.0535925 0.002162 0.0233 0.0923928 0.995723 0.027058 -0.00106 0.999234 -0.0391451 0.999128 -0.0416814 0.100527 0.994901
0.680505 0.0511942 0.002202 0.0229 0.0957157 0.995409 0.02666 -0.00118 0.999022 -0.0442178 0.998915 -0.0465138 0.105493 0.994371
0.703222 0.0487283 0.00223 0.02244 0.098889 0.995098 0.026193 -0.00128 0.998808 -0.0488098 0.998693 -0.0510622 0.110307 0.993831
0.725445 0.0462073 0.002246 0.02192 0.10193 0.994792 0.02566 -0.00137 0.998578 -0.0533146 0.998454 -0.0555384 0.11509 0.993267
0.74712 0.043643 0.002252 0.02135 0.104898 0.994483 0.025061 -0.00145 0.99833 -0.0577622 0.998185 -0.0601734 0.119818 0.992682
0.768195 0.041048 0.002245 0.02073 0.107668 0.994187 0.024399 -0.00153 0.99804 -0.0625846 0.997896 -0.0647965 0.124521 0.992072
0.78862 0.0384343 0.002228 0.02007 0.110334 0.993895 0.023675 -0.00159 0.997752 -0.0670085 0.997613 -0.0690194 0.129253 0.991428
0.80835 0.0358133 0.002201 0.01935 0.113018 0.993593 0.02289 -0.00163 0.997474 -0.0710303 0.997309 -0.0732772 0.134004 0.990755
0.827333 0.0331972 0.002162 0.01858 0.115582 0.993298 0.022049 -0.00167 0.997144 -0.0755241 0.996965 -0.0778182 0.13889 0.990028
0.84552 0.030598 0.002112 0.01777 0.118021 0.993011 0.021152 -0.0017 0.996786 -0.0801123 0.99659 -0.0824769 0.143877 0.989251
0.862875 0.028027 0.002052 0.01693 0.120324 0.992735 0.0202 -0.00172 0.996394 -0.0848415 0.996202 -0.087043 0.148981 0.988415
0.879352 0.0254957 0.001982 0.01603 0.122709 0.992443 0.019196 -0.00172 0.99601 -0.0892445 0.995799 -0.0915399 0.154424 0.987483
0.894907 0.0230158 0.001902 0.01509 0.125054 0.99215 0.018143 -0.00171 0.995588 -0.0938354 0.995325 -0.0965424 0.160116 0.986459
0.90951 0.0205985 0.00181 0.01413 0.127058 0.991895 0.017044 -0.0017 0.995063 -0.0992494 0.994763 -0.102169 0.166052 0.985324
0.923125 0.0182554 0.0017096 0.01313 0.129116 0.99163 0.015898 -0.00168 0.994463 -0.105089 0.994153 -0.107943 0.172601 0.984002
0.935717 0.0159972 0.0015988 0.0121 0.130994 0.991383 0.0147106 -0.00164 0.993843 -0.110798 0.99348 -0.113959 0.179699 0.982475
0.947258 0.0138346 0.0014787 0.01103 0.132873 0.991133 0.0134824 -0.00159 0.993118 -0.11712 0.992632 -0.121102 0.187746 0.980627
0.957718 0.0117775 0.0013499 0.00995 0.134437 0.990922 0.0122151 -0.00154 0.992146 -0.125083 0.991596 -0.129302 0.196932 0.978343
0.96707 0.00983563 0.0012125 0.00883 0.136039 0.990703 0.010911 -0.00147 0.991046 -0.13352 0.990334 -0.13861 0.207965 0.975368
0.97529 0.00801807 0.0010677 0.0077 0.137348 0.990523 0.0095725 -0.00139 0.989621 -0.143701 0.988738 -0.149542 0.22146 0.971346
0.982363 0.00633322 0.0009158 0.00655 0.13847 0.990367 0.0082012 -0.00129 0.987854 -0.155384 0.986565 -0.163178 0.238498 0.965662
0.988262 0.00478883 0.0007579 0.00537 0.139751 0.990187 0.0068001 -0.00118 0.985276 -0.170972 0.983349 -0.181417 0.262458 0.956517
0.99297 0.00339252 0.00059502 0.0042 0.140271 0.990113 0.005371 -0.00105 0.981422 -0.191862 0.978838 -0.204246 0.296867 0.940694
0.996465 0.00215519 0.00042789 0.003 0.141201 0.989981 0.00392072 -0.00087 0.976254 -0.216629 0.972586 -0.232006 0.352196 0.908154
0.998715 0.00110137 0.00025799 0.00181 0.14111 0.989994 0.00246751 -0.00063 0.968918 -0.247382 0.971514 -0.236728 0.448232 0.822655
0.999675 0.0003124 8.62e-05 0.0006 0.142207 0.989837 0.0010772 -0.00025 0.97411 -0.226075 0.487055 0.386963 0.571103 0.494919
0.999675 -0.000312425 8.62e-05 -0.0006 0.142207 -0.989837 0 0.00035 0 1 -0.487057 0.386973 0.571103 -0.494919
1.00073 -0.00093395 0.0011635 0 1 0 0 -0.00215 0 -1 -0.274038 -0.918215 1 0
1.00004 -0.00302688 0.0016484 -0.00143 0.755375 -0.655293 -0.0014088 -0.00215 -0.548075 -0.836429 -0.65883 -0.737487 0.836161 -0.52715
0.998032 -0.0054699 0.0018812 -0.00276 0.56321 -0.826313 -0.0027479 -0.00228 -0.769585 -0.638544 -0.812759 -0.577815 0.675205 -0.721506
0.994732 -0.00812565 0.0020456 -0.00402 0.453517 -0.891248 -0.0041217 -0.00249 -0.855933 -0.517086 -0.878993 -0.474357 0.559005 -0.819271
0.99017 -0.0109399 0.0021873 -0.00524 0.385211 -0.922829 -0.0055173 -0.00264 -0.902052 -0.431627 -0.915385 -0.401208 0.479283 -0.871068
0.984382 -0.0138875 0.002318 -0.00644 0.338668 -0.940906 -0.006913 -0.00276 -0.928717 -0.370788 -0.937239 -0.347827 0.421159 -0.902407
0.977402 -0.0169527 0.002439 -0.0076 0.305571 -0.952169 -0.008297 -0.00285 -0.94576 -0.324866 -0.951492 -0.307107 0.378145 -0.922418
0.969257 -0.0201225 0.002551 -0.00875 0.27989 -0.960032 -0.00966 -0.00292 -0.957224 -0.289347 -0.961315 -0.275051 0.343905 -0.936525
0.959965 -0.0233853 0.002654 -0.00988 0.259427 -0.965763 -0.010996 -0.00297 -0.965405 -0.260754 -0.968374 -0.249219 0.316343 -0.946745
0.949553 -0.0267298 0.002747 -0.01098 0.242702 -0.970101 -0.012301 -0.00301 -0.971343 -0.237683 -0.973581 -0.228129 0.293592 -0.954447
0.938045 -0.0301435 0.002828 -0.01205 0.228481 -0.973548 -0.013572 -0.00304 -0.97582 -0.218575 -0.977693 -0.209851 0.273958 -0.960578
0.925473 -0.0336135 0.002898 -0.01309 0.216156 -0.976359 -0.014806 -0.00304 -0.979565 -0.201126 -0.981051 -0.193597 0.257158 -0.965438
0.911868 -0.037127 0.002955 -0.01411 0.204979 -0.978766 -0.016 -0.00303 -0.982537 -0.186068 -0.983695 -0.179727 0.242197 -0.969468
0.89726 -0.040671 0.003002 -0.01508 0.195241 -0.980755 -0.017154 -0.00302 -0.984854 -0.173386 -0.9859 -0.167218 0.228774 -0.97287
0.881685 -0.044232 0.003036 -0.01602 0.186199 -0.982512 -0.018262 -0.00298 -0.986946 -0.16105 -0.98786 -0.155238 0.216521 -0.975784
0.86518 -0.047796 0.003056 -0.01693 0.177637 -0.984096 -0.019322 -0.00292 -0.988773 -0.149426 -0.989513 -0.144353 0.205245 -0.978304
0.847788 -0.0513492 0.003064 -0.01779 0.169733 -0.98549 -0.020334 -0.00286 -0.990253 -0.13928 -0.99089 -0.134593 0.194791 -0.980512
0.829547 -0.054878 0.00306 -0.01861 0.162249 -0.98675 -0.021295 -0.00279 -0.991526 -0.129906 -0.992106 -0.125317 0.18486 -0.982496
0.8105 -0.0583685 0.003043 -0.01939 0.155039 -0.987908 -0.022201 -0.0027 -0.992686 -0.120727 -0.993192 -0.116405 0.175457 -0.984269
0.790695 -0.061807 0.003013 -0.02011 0.148172 -0.988962 -0.023051 -0.0026 -0.993699 -0.112083 -0.994166 -0.107769 0.166509 -0.985865
0.77018 -0.0651795 0.00297 -0.02079 0.141421 -0.989949 -0.023843 -0.00248 -0.994634 -0.103456 -0.995066 -0.0991228 0.157797 -0.987332
0.749003 -0.068472 0.002914 -0.02143 0.134738 -0.990881 -0.024575 -0.00234 -0.995497 -0.09479 -0.995844 -0.0909993 0.149361 -0.988672
0.727215 -0.0716708 0.002845 -0.022 0.12825 -0.991742 -0.025245 -0.00221 -0.99619 -0.0872086 -0.99653 -0.083129 0.141085 -0.989913
0.704868 -0.0747623 0.002764 -0.02253 0.121768 -0.992559 -0.025852 -0.00205 -0.996871 -0.0790494 -0.997172 -0.0750502 0.132922 -0.991063
0.682015 -0.0777328 0.002669 -0.023 0.11527 -0.993334 -0.026393 -0.00188 -0.997473 -0.071051 -0.997738 -0.0670985 0.124837 -0.99213
0.658715 -0.080568 0.00256 -0.02342 0.108661 -0.994079 -0.026868 -0.0017 -0.998004 -0.063146 -0.998228 -0.0593932 0.11672 -0.993132
0.635023 -0.0832545 0.00244 -0.02377 0.102114 -0.994773 -0.027276 -0.00152 -0.998451 -0.0556403 -0.998664 -0.0515134 0.108595 -0.994065
0.61099 -0.0857787 0.002305 -0.02408 0.095287 -0.99545 -0.027614 -0.00131 -0.998877 -0.0473864 -0.999057 -0.0432242 0.100312 -0.994943
0.586675 -0.088125 0.002156 -0.02433 0.088269 -0.996097 -0.027883 -0.00109 -0.999237 -0.0390621 -0.999379 -0.0350167 0.0917782 -0.995773
0.562142 -0.0902828 0.001995 -0.02451 0.0811271 -0.996704 -0.028077 -0.00087 -0.99952 -0.0309714 -0.999632 -0.0268254 0.0834526 -0.996509
0.53745 -0.0922363 0.001819 -0.02464 0.0736227 -0.997286 -0.028212 -0.00064 -0.999743 -0.0226795 -0.999821 -0.0184155 0.074286 -0.997237
0.512652 -0.0939713 0.001631 -0.02471 0.0658623 -0.997829 -0.028263 -0.0004 -0.9999 -0.0141514 -0.999943 -0.00973032 0.065315 -0.997865
0.487812 -0.0954788 0.001429 -0.02471 0.0577344 -0.998332 -0.028252 -0.00015 -0.999986 -0.00530928 -0.999988 -0.000524963 0.0558494 -0.998437
0.46299 -0.0967417 0.001213 -0.02467 0.0491097 -0.998793 -0.028173 0.00012 -0.999991 0.00425936 -0.999949 0.00890993 0.0457952 -0.998945
0.438245 -0.097749 0.000986 -0.02455 0.0401306 -0.999194 -0.02802 0.00038 -0.999908 0.0135605 -0.999813 0.0186457 0.0355633 -0.999357
0.413637 -0.0984872 0.000747 -0.02439 0.030613 -0.999531 -0.027804 0.00066 -0.999718 0.0237309 -0.999574 0.0287606 0.024429 -0.999682
0.389228 -0.0989478 0.000495 -0.02415 0.0204926 -0.99979 -0.027507 0.00093 -0.999429 0.0337903 -0.999211 0.0393304 0.013315 -0.999886
0.365075 -0.0991203 0.000235 -0.02387 0.00984452 -0.999952 -0.027162 0.00122 -0.998993 0.0448705 -0.998711 0.0504422 0.000988633 -0.99996
0.341235 -0.098995 -3.6e-05 -0.02352 -0.00153061 -0.999999 -0.026737 0.0015 -0.99843 0.0560139 -0.998045 0.0621955 -0.0114681 -0.999885
0.317767 -0.0985648 -0.000315 -0.02312 -0.0136233 -0.999907 -0.026263 0.0018 -0.99766 0.0683771 -0.997187 0.074688 -0.0251675 -0.999617
0.29473 -0.0978207 -0.000601 -0.02267 -0.0265015 -0.999649 -0.025718 0.00209 -0.996714 0.080999 -0.996146 0.0874664 -0.0393589 -0.999142
0.27218 -0.09676 -0.000892 -0.02214 -0.0402564 -0.999189 -0.025119 0.00237 -0.995578 0.0939337 -0.994837 0.101221 -0.0545827 -0.998406
0.250167 -0.095378 -0.001186 -0.02159 -0.0548501 -0.998495 -0.024461 0.00267 -0.994095 0.108509 -0.993208 0.116099 -0.0706809 -0.997373
0.22875 -0.0936707 -0.001483 -0.02096 -0.0705774 -0.997506 -0.023747 0.00296 -0.992321 0.12369 -0.991259 0.131681 -0.0881916 -0.995947
0.207983 -0.0916425 -0.00178 -0.02029 -0.0873923 -0.996174 -0.02297 0.00324 -0.990198 0.139671 -0.988873 0.148492 -0.106129 -0.994174
0.18791 -0.0892945 -0.002075 -0.01957 -0.105439 -0.994426 -0.02216 0.00353 -0.987549 0.157313 -0.985954 0.166744 -0.126146 -0.991792
0.168588 -0.0866263 -0.002368 -0.0188 -0.12497 -0.992161 -0.021288 0.00381 -0.984359 0.176175 -0.982445 0.18627 -0.147315 -0.988832
0.15006 -0.0836465 -0.002654 -0.01799 -0.145947 -0.989292 -0.020373 0.00408 -0.980531 0.196366 -0.97822 0.207271 -0.170101 -0.985122
0.13237 -0.0803615 -0.002935 -0.01713 -0.168876 -0.985637 -0.019413 0.00434 -0.975909 0.218176 -0.973043 0.230288 -0.194841 -0.980477
0.115565 -0.0767795 -0.003206 -0.01623 -0.193791 -0.981043 -0.018411 0.0046 -0.970177 0.242399 -0.966734 0.255429 -0.221825 -0.974662
0.0996848 -0.072911 -0.003468 -0.015292 -0.221169 -0.975235 -0.017367 0.00484 -0.963291 0.268459 -0.958986 0.283045 -0.251174 -0.967445
0.0847663 -0.068768 -0.003718 -0.014315 -0.251387 -0.967887 -0.016285 0.005077 -0.954681 0.297631 -0.949352 0.313756 -0.283514 -0.958383
0.0708483 -0.0643637 -0.003955 -0.013305 -0.284934 -0.958547 -0.015167 0.0053 -0.944022 0.329882 -0.937347 0.347868 -0.31925 -0.946979
0.0579642 -0.0597117 -0.004181 -0.01226 -0.322775 -0.946476 -0.014014 0.005509 -0.930672 0.365854 -0.922198 0.386095 -0.359134 -0.932472
0.046146 -0.054827 -0.004391 -0.011187 -0.365372 -0.930862 -0.012831 0.005706 -0.913723 0.406337 -0.902864 0.429183 -0.403717 -0.913923
0.0354223 -0.0497255 -0.004586 -0.010087 -0.413878 -0.910332 -0.011619 0.005888 -0.892004 0.452028 -0.877917 0.477906 -0.453976 -0.889876
0.0258195 -0.044423 -0.004768 -0.008961 -0.469729 -0.882811 -0.010379 0.006053 -0.86383 0.503783 -0.845306 0.533153 -0.510819 -0.858358
0.0173618 -0.038936 -0.004934 -0.007813 -0.533952 -0.845515 -0.009117 0.006203 -0.826781 0.562523 -0.802174 0.595662 -0.57505 -0.816573
0.0100696 -0.0332812 -0.005086 -0.0066475 -0.607647 -0.794207 -0.007835 0.006336 -0.777566 0.628801 -0.74471 0.665564 -0.647041 -0.760699
0.0039613 -0.0274755 -0.005222 -0.0054641 -0.69091 -0.722941 -0.006538 0.0064505 -0.711854 0.702327 -0.667951 0.741856 -0.726209 -0.685549
-0.000947005 -0.0215362 -0.005344 -0.00426702 -0.781452 -0.623965 -0.005228 0.0065461 -0.624049 0.781386 -0.566404 0.821147 -0.809544 -0.585098
-0.00464211 -0.0154825 -0.005449 -0.00305828 -0.872039 -0.489436 -0.003913 0.00662148 -0.508759 0.860909 -0.435773 0.89639 -0.890221 -0.453766
-0.0071129 -0.0093348 -0.0055362 -0.00184 -0.948961 -0.315395 -0.002599 0.0066759 -0.362788 0.931872 -0.276 0.956904 -0.956754 -0.289652
-0.00835077 -0.00311995 -0.00559392 -0.0006143 -0.994024 -0.109159 -0.0012926 0.0067081 -0.189212 0.981936 -0.094593 0.990968 -0.994966 -0.0997714
-0.00835072 0.00312035 -0.00559388 0.0006145 -0.99402 0.109195 1.72e-07 0.0067188 2.55998e-05 1 0.0946441 0.990963 -0.994964 0.0997892
-0.0071126 0.009335 -0.005536 0.0018401 -0.948952 0.31542 0.001293 0.0067083 0.189263 0.981926 0.276035 0.956895 -0.956734 0.289721
-0.00464149 0.0154827 -0.005449 0.00305843 -0.872029 0.489455 0.002599 0.0066755 0.362807 0.931864 0.435847 0.896349 -0.89022 0.453767
-0.000946143 0.0215365 -0.005344 0.00426717 -0.781441 0.623979 0.003914 0.00662093 0.508887 0.860834 0.566491 0.821091 -0.809508 0.585151
0.0039624 0.0274752 -0.005222 0.0054642 -0.690903 0.722948 0.005228 0.0065453 0.624095 0.781348 0.667975 0.741837 -0.726172 0.685591
0.010071 0.0332805 -0.005085 0.0066478 -0.607555 0.794278 0.006537 0.0064495 0.711855 0.702327 0.744735 0.665534 -0.646986 0.760743
0.0173633 0.0389348 -0.004934 0.007813 -0.533952 0.845515 0.007835 0.006335 0.777615 0.628741 0.802205 0.595622 -0.575019 0.816597
0.025821 0.0444213 -0.004767 0.008961 -0.469652 0.882852 0.009116 0.006202 0.826795 0.562504 0.845331 0.533112 -0.510781 0.858378
0.035424 0.0497235 -0.004587 0.010087 -0.413953 0.910298 0.010379 0.006052 0.863866 0.503721 0.87795 0.477844 -0.453963 0.889888
0.046148 0.0548248 -0.00439 0.011187 -0.3653 0.93089 0.011617 0.005886 0.892034 0.451968 0.902899 0.429106 -0.403681 0.913937
0.0579665 0.0597087 -0.00418 0.012261 -0.322682 0.946508 0.01283 0.005704 0.913765 0.406244 0.922225 0.386032 -0.359057 0.932501
0.0708505 0.0643602 -0.003956 0.013304 -0.28502 0.958521 0.014013 0.005508 0.930686 0.365819 0.937363 0.347824 -0.319262 0.946977
0.0847688 0.068764 -0.003717 0.014316 -0.251307 0.967907 0.015164 0.005298 0.944041 0.329829 0.94937 0.313701 -0.283435 0.958406
0.0996863 0.0729062 -0.003468 0.01529 -0.221197 0.975229 0.016282 0.005075 0.954699 0.297574 0.958987 0.283045 -0.251193 0.967441
0.115568 0.0767738 -0.003205 0.01623 -0.193733 0.981054 0.017363 0.00484 0.963275 0.268516 0.96678 0.255241 -0.22167 0.974701
0.132373 0.0803548 -0.002934 0.01713 -0.16882 0.985647 0.018406 0.00459 0.970285 0.241965 0.973092 0.230092 -0.194874 0.980469
0.150062 0.0836392 -0.002654 0.01799 -0.145947 0.989292 0.019409 0.00434 0.9759 0.218219 0.978257 0.207084 -0.170024 0.985137
0.168593 0.0866182 -0.002367 0.0188 -0.124918 0.992167 0.020368 0.00407 0.980614 0.195949 0.982523 0.185858 -0.147264 0.988839
0.187915 0.0892837 -0.002075 0.01957 -0.105439 0.994426 0.021283 0.0038 0.984432 0.175767 0.986017 0.166371 -0.125927 0.991825
0.207985 0.091632 -0.00178 0.02029 -0.0873923 0.996174 0.022146 0.00352 0.987603 0.156975 0.988899 0.148335 -0.106396 0.99414
0.228755 0.09366 -0.001482 0.02097 -0.0704966 0.997512 0.022966 0.00324 0.990195 0.139695 0.991254 0.131726 -0.0878952 0.995977
0.250173 0.0953645 -0.001186 0.02158 -0.0548755 0.998493 0.023734 0.00296 0.992313 0.123757 0.993201 0.116161 -0.0707132 0.99737
0.272182 0.0967463 -0.000891 0.02215 -0.0401932 0.999192 0.024448 0.00267 0.994089 0.108566 0.994813 0.101469 -0.0545511 0.998407
0.294732 0.0978065 -0.0006 0.02266 -0.0264691 0.99965 0.025107 0.00238 0.995537 0.0943712 0.996124 0.0877023 -0.0393427 0.999143
0.31777 0.0985503 -0.000315 0.02312 -0.0136233 0.999907 0.025707 0.00209 0.996711 0.0810334 0.997197 0.0745304 -0.0251597 0.999617
0.341238 0.0989805 -3.6e-05 0.02352 -0.00153061 0.999999 0.026252 0.00179 0.997683 0.0680273 0.998056 0.0620321 -0.0114726 0.999885
0.365075 0.0991057 0.000235 0.02387 0.00984452 0.999952 0.026726 0.0015 0.998429 0.0560369 0.99871 0.0504628 0.000988633 0.99996
0.389228 0.098933 0.000496 0.02415 0.020534 0.999789 0.027151 0.00122 0.998992 0.0448886 0.99921 0.0393456 0.0133357 0.999885
0.41364 0.0984722 0.000747 0.02439 0.030613 0.999531 0.027497 0.00093 0.999429 0.0338025 0.999578 0.0285912 0.0244253 0.999682
0.438248 0.097734 0.000986 0.02455 0.0401306 0.999194 0.027794 0.00065 0.999727 0.0233799 0.999817 0.0184726 0.0355695 0.999357
0.46299 0.0967265 0.001214 0.02467 0.0491501 0.998791 0.02801 0.00038 0.999908 0.0135653 0.999949 0.00891303 0.0458154 0.998944
0.487813 0.0954635 0.001428 0.02471 0.0576941 0.998334 0.028164 0.00012 0.999991 0.00426072 0.999988 -0.000525222 0.0558293 0.998439