VARIABLES = "X", "Y", "Speed", "P", "M","H", "S", "Xvel", "Yvel","F0", "G0", "rho", "RES0", "RES1", "RES2", "RES3" 
ZONE T = "CELL CENTERS AT TIMESTEP 0 ", I = 129 , J = 64, F=POINT 

0.999675 -0.000312425 281.518 101325 0.85 314013 3295.47 281.518 0 364.003 0 1.293 -354.581 -212932 -125260 -1.11343e+08
0.998715 -0.00110145 281.518 101325 0.85 314013 3295.47 281.518 0 364.003 0 1.293 -197.611 -124937 13400.8 -6.20524e+07
0.996465 -0.00215532 281.518 101325 0.85 314013 3295.47 281.518 0 364.003 0 1.293 -282.801 -172642 38725.1 -8.88033e+07
0.99297 -0.00339274 281.518 101325 0.85 314013 3295.47 281.518 0 364.003 0 1.293 -313.444 -189704 50439.4 -9.84253e+07
0.988263 -0.0047892 281.518 101325 0.85 314013 3295.47 281.518 0 364.003 0 1.293 -329.753 -198783 58712.9 -1.03547e+08
0.982363 -0.00633395 281.518 101325 0.85 314013 3295.47 281.518 0 364.003 0 1.293 -338.995 -203828 64359.8 -1.06449e+08
0.97529 -0.00801908 281.518 101325 0.85 314013 3295.47 281.518 0 364.003 0 1.293 -344.902 -207021 68630.7 -1.08304e+08
0.96707 -0.00983662 281.518 101325 0.85 314013 3295.47 281.518 0 364.003 0 1.293 -348.951 -209155 72095.9 -1.09575e+08
0.957717 -0.0117785 281.518 101325 0.85 314013 3295.47 281.518 0 364.003 0 1.293 -351.811 -210594 74838.7 -1.10473e+08
0.947258 -0.0138359 281.518 101325 0.85 314013 3295.47 281.518 0 364.003 0 1.293 -353.926 -211620 77150.8 -1.11137e+08
0.935717 -0.015999 281.518 101325 0.85 314013 3295.47 281.518 0 364.003 0 1.293 -355.466 -212292 78945.8 -1.11621e+08
0.923125 -0.0182576 281.518 101325 0.85 314013 3295.47 281.518 0 364.003 0 1.293 -356.791 -212843 80676.5 -1.12037e+08
0.90951 -0.0206008 281.518 101325 0.85 314013 3295.47 281.518 0 364.003 0 1.293 -357.864 -213236 82241.1 -1.12374e+08
0.894907 -0.023018 281.518 101325 0.85 314013 3295.47 281.518 0 364.003 0 1.293 -358.681 -213490 83510.1 -1.1263e+08
0.879352 -0.0254985 281.518 101325 0.85 314013 3295.47 281.518 0 364.003 0 1.293 -359.405 -213658 84706.2 -1.12858e+08
0.862875 -0.02803 281.518 101325 0.85 314013 3295.47 281.518 0 364.003 0 1.293 -360.056 -213781 85894.1 -1.13062e+08
0.84552 -0.030601 281.518 101325 0.85 314013 3295.47 281.518 0 364.003 0 1.293 -360.598 -213850 86983.2 -1.13232e+08
0.827333 -0.0332005 281.518 101325 0.85 314013 3295.47 281.518 0 364.003 0 1.293 -361.049 -213856 87948.2 -1.13374e+08
0.80835 -0.035817 281.518 101325 0.85 314013 3295.47 281.518 0 364.003 0 1.293 -361.461 -213827 88898.6 -1.13503e+08
0.78862 -0.0384383 281.518 101325 0.85 314013 3295.47 281.518 0 364.003 0 1.293 -361.811 -213751 89756.9 -1.13613e+08
0.768195 -0.0410522 281.518 101325 0.85 314013 3295.47 281.518 0 364.003 0 1.293 -362.155 -213673 90701.7 -1.13721e+08
0.74712 -0.0436475 281.518 101325 0.85 314013 3295.47 281.518 0 364.003 0 1.293 -362.47 -213569 91649.8 -1.1382e+08
0.725445 -0.0462117 281.518 101325 0.85 314013 3295.47 281.518 0 364.003 0 1.293 -362.706 -213401 92411.3 -1.13894e+08
0.703222 -0.048733 281.518 101325 0.85 314013 3295.47 281.518 0 364.003 0 1.293 -362.948 -213228 93275.1 -1.1397e+08
0.680505 -0.0511993 281.518 101325 0.85 314013 3295.47 281.518 0 364.003 0 1.293 -363.161 -213025 94125.6 -1.14037e+08
0.65735 -0.0535975 281.518 101325 0.85 314013 3295.47 281.518 0 364.003 0 1.293 -363.354 -212797 95007.1 -1.14098e+08
0.633815 -0.055915 281.518 101325 0.85 314013 3295.47 281.518 0 364.003 0 1.293 -363.504 -212515 95778 -1.14145e+08
0.609955 -0.0581393 281.518 101325 0.85 314013 3295.47 281.518 0 364.003 0 1.293 -363.656 -212224 96701.1 -1.14193e+08
0.585823 -0.060257 281.518 101325 0.85 314013 3295.47 281.518 0 364.003 0 1.293 -363.778 -211884 97598.9 -1.14231e+08
0.561478 -0.0622547 281.518 101325 0.85 314013 3295.47 281.518 0 364.003 0 1.293 -363.87 -211496 98441.6 -1.1426e+08
0.53698 -0.0641193 281.518 101325 0.85 314013 3295.47 281.518 0 364.003 0 1.293 -363.941 -211071 99344.7 -1.14282e+08
0.51239 -0.0658367 281.518 101325 0.85 314013 3295.47 281.518 0 364.003 0 1.293 -363.988 -210590 100313 -1.14297e+08
0.48777 -0.067394 281.518 101325 0.85 314013 3295.47 281.518 0 364.003 0 1.293 -364.004 -210061 101245 -1.14302e+08
0.463172 -0.0687772 281.518 101325 0.85 314013 3295.47 281.518 0 364.003 0 1.293 -363.99 -209461 102292 -1.14297e+08
0.438658 -0.0699733 281.518 101325 0.85 314013 3295.47 281.518 0 364.003 0 1.293 -363.942 -208803 103279 -1.14282e+08
0.414287 -0.0709695 281.518 101325 0.85 314013 3295.47 281.518 0 364.003 0 1.293 -363.848 -208061 104433 -1.14253e+08
0.390122 -0.0717533 281.518 101325 0.85 314013 3295.47 281.518 0 364.003 0 1.293 -363.717 -207251 105506 -1.14212e+08
0.36622 -0.0723135 281.518 101325 0.85 314013 3295.47 281.518 0 364.003 0 1.293 -363.525 -206345 106723 -1.14151e+08
0.342635 -0.0726395 281.518 101325 0.85 314013 3295.47 281.518 0 364.003 0 1.293 -363.285 -205344 107912 -1.14076e+08
0.319425 -0.072721 281.518 101325 0.85 314013 3295.47 281.518 0 364.003 0 1.293 -362.964 -204230 109226 -1.13975e+08
0.296642 -0.0725497 281.518 101325 0.85 314013 3295.47 281.518 0 364.003 0 1.293 -362.562 -203000 110608 -1.13849e+08
0.27435 -0.0721187 281.518 101325 0.85 314013 3295.47 281.518 0 364.003 0 1.293 -362.099 -201655 111941 -1.13704e+08
0.2526 -0.0714225 281.518 101325 0.85 314013 3295.47 281.518 0 364.003 0 1.293 -361.461 -200126 113563 -1.13503e+08
0.23144 -0.0704572 281.518 101325 0.85 314013 3295.47 281.518 0 364.003 0 1.293 -360.753 -198473 115077 -1.13281e+08
0.210927 -0.0692205 281.518 101325 0.85 314013 3295.47 281.518 0 364.003 0 1.293 -359.855 -196602 116795 -1.12999e+08
0.19111 -0.0677118 281.518 101325 0.85 314013 3295.47 281.518 0 364.003 0 1.293 -358.774 -194527 118587 -1.1266e+08
0.172035 -0.0659325 281.518 101325 0.85 314013 3295.47 281.518 0 364.003 0 1.293 -357.445 -192189 120540 -1.12242e+08
0.15375 -0.063886 281.518 101325 0.85 314013 3295.47 281.518 0 364.003 0 1.293 -355.838 -189555 122615 -1.11738e+08
0.136295 -0.0615773 281.518 101325 0.85 314013 3295.47 281.518 0 364.003 0 1.293 -353.952 -186624 124738 -1.11146e+08
0.119715 -0.059013 281.518 101325 0.85 314013 3295.47 281.518 0 364.003 0 1.293 -351.531 -183198 127181 -1.10385e+08
0.104053 -0.0562012 281.518 101325 0.85 314013 3295.47 281.518 0 364.003 0 1.293 -348.592 -179265 129771 -1.09462e+08
0.0893455 -0.0531515 281.518 101325 0.85 314013 3295.47 281.518 0 364.003 0 1.293 -344.951 -174701 132566 -1.08319e+08
0.0756255 -0.0498753 281.518 101325 0.85 314013 3295.47 281.518 0 364.003 0 1.293 -340.354 -169294 135645 -1.06876e+08
0.0629278 -0.0463838 281.518 101325 0.85 314013 3295.47 281.518 0 364.003 0 1.293 -334.553 -162829 138979 -1.05054e+08
0.0512832 -0.0426892 281.518 101325 0.85 314013 3295.47 281.518 0 364.003 0 1.293 -327.051 -154936 142646 -1.02698e+08
0.04072 -0.0388057 281.518 101325 0.85 314013 3295.47 281.518 0 364.003 0 1.293 -317.259 -145169 146621 -9.96235e+07
0.0312637 -0.034746 281.518 101325 0.85 314013 3295.47 281.518 0 364.003 0 1.293 -304.302 -132841 150834 -9.55547e+07
0.0229377 -0.0305232 281.518 101325 0.85 314013 3295.47 281.518 0 364.003 0 1.293 -286.836 -117019 155162 -9.00701e+07
0.0157616 -0.026151 281.518 101325 0.85 314013 3295.47 281.518 0 364.003 0 1.293 -262.965 -96339.5 159205 -8.25744e+07
0.00975305 -0.0216417 281.518 101325 0.85 314013 3295.47 281.518 0 364.003 0 1.293 -230.223 -69135.1 162072 -7.22929e+07
0.00492719 -0.017008 281.518 101325 0.85 314013 3295.47 281.518 0 364.003 0 1.293 -185.606 -33618 162102 -5.82827e+07
0.00129595 -0.012262 281.518 101325 0.85 314013 3295.47 281.518 0 364.003 0 1.293 -127.314 10790.2 156366 -3.99781e+07
-0.00113098 -0.007416 281.518 101325 0.85 314013 3295.47 281.518 0 364.003 0 1.293 -57.52 61054.8 141393 -1.8062e+07
-0.00234645 -0.00248472 281.518 101325 0.85 314013 3295.47 281.518 0 364.003 0 1.293 14.7649 108632 116117 4.63635e+06
-0.00234641 0.00248483 281.518 101325 0.85 314013 3295.47 281.518 0 364.003 0 1.293 83.6473 147198 84702 2.62663e+07
-0.00113086 0.00741605 281.518 101325 0.85 314013 3295.47 281.518 0 364.003 0 1.293 143.42 173557 52522.3 4.50356e+07
0.00129613 0.012262 281.518 101325 0.85 314013 3295.47 281.518 0 364.003 0 1.293 189.944 188417 25284.9 5.96448e+07
0.00492746 0.017008 281.518 101325 0.85 314013 3295.47 281.518 0 364.003 0 1.293 226.789 197274 4294 7.12146e+07
0.00975337 0.0216418 281.518 101325 0.85 314013 3295.47 281.518 0 364.003 0 1.293 256.067 203129 -11739.3 8.04083e+07
0.015762 0.0261508 281.518 101325 0.85 314013 3295.47 281.518 0 364.003 0 1.293 279.18 207198 -24326.2 8.76661e+07
0.0229383 0.0305228 281.518 101325 0.85 314013 3295.47 281.518 0 364.003 0 1.293 297.17 209955 -34457.7 9.33151e+07
0.0312643 0.0347452 281.518 101325 0.85 314013 3295.47 281.518 0 364.003 0 1.293 311.085 211703 -42789.7 9.76847e+07
0.0407205 0.038805 281.518 101325 0.85 314013 3295.47 281.518 0 364.003 0 1.293 321.888 212677 -49783.3 1.01077e+08
0.0512837 0.0426885 281.518 101325 0.85 314013 3295.47 281.518 0 364.003 0 1.293 330.247 213073 -55676.1 1.03702e+08
0.0629285 0.0463825 281.518 101325 0.85 314013 3295.47 281.518 0 364.003 0 1.293 336.833 213068 -60751.1 1.0577e+08
0.0756263 0.049874 281.518 101325 0.85 314013 3295.47 281.518 0 364.003 0 1.293 342.041 212766 -65149.4 1.07405e+08
0.0893463 0.0531502 281.518 101325 0.85 314013 3295.47 281.518 0 364.003 0 1.293 346.194 212258 -68993.7 1.08709e+08
0.104054 0.0561998 281.518 101325 0.85 314013 3295.47 281.518 0 364.003 0 1.293 349.554 211613 -72406.8 1.09764e+08
0.119715 0.0590112 281.518 101325 0.85 314013 3295.47 281.518 0 364.003 0 1.293 352.252 210836 -75412.2 1.10612e+08
0.136295 0.061575 281.518 101325 0.85 314013 3295.47 281.518 0 364.003 0 1.293 354.469 210007 -78114.2 1.11308e+08
0.15375 0.0638835 281.518 101325 0.85 314013 3295.47 281.518 0 364.003 0 1.293 356.309 209163 -80607.5 1.11886e+08
0.172035 0.0659297 281.518 101325 0.85 314013 3295.47 281.518 0 364.003 0 1.293 357.812 208270 -82834.2 1.12357e+08
0.19111 0.0677088 281.518 101325 0.85 314013 3295.47 281.518 0 364.003 0 1.293 359.033 207361 -84838.2 1.12741e+08
0.210928 0.0692175 281.518 101325 0.85 314013 3295.47 281.518 0 364.003 0 1.293 360.071 206471 -86738.1 1.13067e+08
0.231442 0.070454 281.518 101325 0.85 314013 3295.47 281.518 0 364.003 0 1.293 360.903 205569 -88432.4 1.13328e+08
0.252603 0.071419 281.518 101325 0.85 314013 3295.47 281.518 0 364.003 0 1.293 361.584 204693 -89986.6 1.13542e+08
0.274352 0.072115 281.518 101325 0.85 314013 3295.47 281.518 0 364.003 0 1.293 362.157 203842 -91463.2 1.13722e+08
0.296645 0.0725455 281.518 101325 0.85 314013 3295.47 281.518 0 364.003 0 1.293 362.614 203012 -92798.1 1.13866e+08
0.319425 0.0727165 281.518 101325 0.85 314013 3295.47 281.518 0 364.003 0 1.293 362.994 202220 -94087.4 1.13985e+08
0.342635 0.072635 281.518 101325 0.85 314013 3295.47 281.518 0 364.003 0 1.293 363.307 201461 -95343.7 1.14083e+08
0.36622 0.072309 281.518 101325 0.85 314013 3295.47 281.518 0 364.003 0 1.293 363.543 200727 -96498.7 1.14157e+08
0.390122 0.0717485 281.518 101325 0.85 314013 3295.47 281.518 0 364.003 0 1.293 363.714 200025 -97533.7 1.14211e+08
0.414288 0.0709645 281.518 101325 0.85 314013 3295.47 281.518 0 364.003 0 1.293 363.848 199362 -98603.5 1.14253e+08
0.438657 0.0699683 281.518 101325 0.85 314013 3295.47 281.518 0 364.003 0 1.293 363.932 198719 -99536.5 1.14279e+08
0.463172 0.068772 281.518 101325 0.85 314013 3295.47 281.518 0 364.003 0 1.293 363.98 198116 -100486 1.14294e+08
0.48777 0.0673887 281.518 101325 0.85 314013 3295.47 281.518 0 364.003 0 1.293 363.994 197531 -101351 1.14299e+08
0.51239 0.0658317 281.518 101325 0.85 314013 3295.47 281.518 0 364.003 0 1.293 363.977 196984 -102285 1.14293e+08
0.53698 0.064114 281.518 101325 0.85 314013 3295.47 281.518 0 364.003 0 1.293 363.935 196453 -103077 1.1428e+08
0.561478 0.0622495 281.518 101325 0.85 314013 3295.47 281.518 0 364.003 0 1.293 363.869 195951 -103879 1.14259e+08
0.585823 0.0602517 281.518 101325 0.85 314013 3295.47 281.518 0 364.003 0 1.293 363.775 195460 -104696 1.1423e+08
0.609955 0.058134 281.518 101325 0.85 314013 3295.47 281.518 0 364.003 0 1.293 363.663 194988 -105462 1.14195e+08
0.633815 0.05591 281.518 101325 0.85 314013 3295.47 281.518 0 364.003 0 1.293 363.529 194537 -106219 1.14153e+08
0.65735 0.0535925 281.518 101325 0.85 314013 3295.47 281.518 0 364.003 0 1.293 363.362 194078 -107046 1.141e+08
0.680505 0.0511942 281.518 101325 0.85 314013 3295.47 281.518 0 364.003 0 1.293 363.198 193650 -107726 1.14049e+08
0.703222 0.0487283 281.518 101325 0.85 314013 3295.47 281.518 0 364.003 0 1.293 362.999 193216 -108486 1.13986e+08
0.725445 0.0462073 281.518 101325 0.85 314013 3295.47 281.518 0 364.003 0 1.293 362.773 192782 -109261 1.13915e+08
0.74712 0.043643 281.518 101325 0.85 314013 3295.47 281.518 0 364.003 0 1.293 362.51 192334 -110094 1.13833e+08
0.768195 0.041048 281.518 101325 0.85 314013 3295.47 281.518 0 364.003 0 1.293 362.258 191912 -110792 1.13754e+08
0.78862 0.0384343 281.518 101325 0.85 314013 3295.47 281.518 0 364.003 0 1.293 361.947 191468 -111600 1.13656e+08
0.80835 0.0358133 281.518 101325 0.85 314013 3295.47 281.518 0 364.003 0 1.293 361.588 190995 -112492 1.13543e+08
0.827333 0.0331972 281.518 101325 0.85 314013 3295.47 281.518 0 364.003 0 1.293 361.228 190533 -113303 1.1343e+08
0.84552 0.030598 281.518 101325 0.85 314013 3295.47 281.518 0 364.003 0 1.293 360.796 190044 -114217 1.13294e+08
0.862875 0.028027 281.518 101325 0.85 314013 3295.47 281.518 0 364.003 0 1.293 360.313 189541 -115152 1.13143e+08
0.879352 0.0254957 281.518 101325 0.85 314013 3295.47 281.518 0 364.003 0 1.293 359.76 188990 -116170 1.12969e+08
0.894907 0.0230158 281.518 101325 0.85 314013 3295.47 281.518 0 364.003 0 1.293 359.057 188358 -117402 1.12749e+08
0.90951 0.0205985 281.518 101325 0.85 314013 3295.47 281.518 0 364.003 0 1.293 358.304 187733 -118613 1.12512e+08
0.923125 0.0182554 281.518 101325 0.85 314013 3295.47 281.518 0 364.003 0 1.293 357.419 187029 -119912 1.12234e+08
0.935717 0.0159972 281.518 101325 0.85 314013 3295.47 281.518 0 364.003 0 1.293 356.298 186212 -121476 1.11882e+08
0.947258 0.0138346 281.518 101325 0.85 314013 3295.47 281.518 0 364.003 0 1.293 354.843 185207 -123387 1.11425e+08
0.957718 0.0117775 281.518 101325 0.85 314013 3295.47 281.518 0 364.003 0 1.293 353.167 184110 -125349 1.10899e+08
0.96707 0.00983563 281.518 101325 0.85 314013 3295.47 281.518 0 364.003 0 1.293 350.888 182671 -127840 1.10183e+08
0.97529 0.00801807 281.518 101325 0.85 314013 3295.47 281.518 0 364.003 0 1.293 347.783 180801 -130872 1.09208e+08
0.982363 0.00633322 281.518 101325 0.85 314013 3295.47 281.518 0 364.003 0 1.293 343.317 178186 -134849 1.07806e+08
0.988262 0.00478883 281.518 101325 0.85 314013 3295.47 281.518 0 364.003 0 1.293 336.821 174419 -139901 1.05766e+08
0.99297 0.00339252 281.518 101325 0.85 314013 3295.47 281.518 0 364.003 0 1.293 326.453 168562 -146576 1.0251e+08
0.996465 0.00215519 281.518 101325 0.85 314013 3295.47 281.518 0 364.003 0 1.293 308.884 158631 -155823 9.69935e+07
0.998715 0.00110137 281.518 101325 0.85 314013 3295.47 281.518 0 364.003 0 1.293 -72.566 -54926.3 -38623.4 -2.27866e+07
0.999675 0.0003124 281.518 101325 0.85 314013 3295.47 281.518 0 364.003 0 1.293 -155.08 -101235 -309276 -4.8697e+07
0.999675 -0.000312425 281.518 101325 0.85 314013 3295.47 281.518 0 364.003 0 1.293 -354.581 -212932 -125260 -1.11343e+08
1.00073 -0.00093395 281.518 101325 0.85 314013 3295.47 281.518 0 364.003 0 1.293 -199.501 -111697 16573.8 -6.26459e+07
1.00004 -0.00302688 281.518 101325 0.85 314013 3295.47 281.518 0 364.003 0 1.293 -5.65691 -3167.2 9590.7 -1.77634e+06
0.998032 -0.0054699 281.518 101325 0.85 314013 3295.47 281.518 0 364.003 0 1.293 42.1336 23589.8 -6422.06 1.32305e+07
0.994732 -0.00812565 281.518 101325 0.85 314013 3295.47 281.518 0 364.003 0 1.293 36.4764 20422.4 -10340.6 1.1454e+07
0.99017 -0.0109399 281.518 101325 0.85 314013 3295.47 281.518 0 364.003 0 1.293 29.1789 16336.7 -11535.6 9.16256e+06
0.984382 -0.0138875 281.518 101325 0.85 314013 3295.47 281.518 0 364.003 0 1.293 23.0309 12894.6 -11413.2 7.23201e+06
0.977402 -0.0169527 281.518 101325 0.85 314013 3295.47 281.518 0 364.003 0 1.293 18.3636 10281.5 -10881.4 5.76642e+06
0.969257 -0.0201225 281.518 101325 0.85 314013 3295.47 281.518 0 364.003 0 1.293 14.7413 8253.38 -10116.9 4.62896e+06
0.959965 -0.0233853 281.518 101325 0.85 314013 3295.47 281.518 0 364.003 0 1.293 12.0261 6733.17 -9387.1 3.77634e+06
0.949553 -0.0267298 281.518 101325 0.85 314013 3295.47 281.518 0 364.003 0 1.293 9.84778 5513.59 -8602.75 3.09233e+06
0.938045 -0.0301435 281.518 101325 0.85 314013 3295.47 281.518 0 364.003 0 1.293 7.9911 4474.07 -7686.14 2.50931e+06
0.925473 -0.0336135 281.518 101325 0.85 314013 3295.47 281.518 0 364.003 0 1.293 6.73141 3768.79 -7117.64 2.11375e+06
0.911868 -0.037127 281.518 101325 0.85 314013 3295.47 281.518 0 364.003 0 1.293 5.64709 3161.7 -6543.52 1.77326e+06
0.89726 -0.040671 281.518 101325 0.85 314013 3295.47 281.518 0 364.003 0 1.293 4.64389 2600.02 -5812.8 1.45824e+06
0.881685 -0.044232 281.518 101325 0.85 314013 3295.47 281.518 0 364.003 0 1.293 3.88636 2175.9 -5265 1.22037e+06
0.86518 -0.047796 281.518 101325 0.85 314013 3295.47 281.518 0 364.003 0 1.293 3.34164 1870.92 -4914.71 1.04932e+06
0.847788 -0.0513492 281.518 101325 0.85 314013 3295.47 281.518 0 364.003 0 1.293 2.80463 1570.26 -4454.15 880691
0.829547 -0.054878 281.518 101325 0.85 314013 3295.47 281.518 0 364.003 0 1.293 2.27933 1276.16 -3901.22 715740
0.8105 -0.0583685 281.518 101325 0.85 314013 3295.47 281.518 0 364.003 0 1.293 1.90505 1066.6 -3521.78 598211
0.790695 -0.061807 281.518 101325 0.85 314013 3295.47 281.518 0 364.003 0 1.293 1.54917 867.353 -3086.4 486460
0.77018 -0.0651795 281.518 101325 0.85 314013 3295.47 281.518 0 364.003 0 1.293 1.26574 708.662 -2722.62 397457
0.749003 -0.068472 281.518 101325 0.85 314013 3295.47 281.518 0 364.003 0 1.293 1.05899 592.908 -2501.42 332536
0.727215 -0.0716708 281.518 101325 0.85 314013 3295.47 281.518 0 364.003 0 1.293 0.793056 444.017 -2019.61 249030
0.704868 -0.0747623 281.518 101325 0.85 314013 3295.47 281.518 0 364.003 0 1.293 0.628338 351.794 -1751.32 197306
0.682015 -0.0777328 281.518 101325 0.85 314013 3295.47 281.518 0 364.003 0 1.293 0.474828 265.847 -1454.96 149102
0.658715 -0.080568 281.518 101325 0.85 314013 3295.47 281.518 0 364.003 0 1.293 0.342697 191.869 -1169.64 107611
0.635023 -0.0832545 281.518 101325 0.85 314013 3295.47 281.518 0 364.003 0 1.293 0.206714 115.736 -747.109 64910.9
0.61099 -0.0857787 281.518 101325 0.85 314013 3295.47 281.518 0 364.003 0 1.293 0.125287 70.1456 -478.426 39341.6
0.586675 -0.088125 281.518 101325 0.85 314013 3295.47 281.518 0 364.003 0 1.293 0.0670599 37.5456 -248.15 21057.7
0.562142 -0.0902828 281.518 101325 0.85 314013 3295.47 281.518 0 364.003 0 1.293 0.0169221 9.47434 58.0982 5313.74
0.53745 -0.0922363 281.518 101325 0.85 314013 3295.47 281.518 0 364.003 0 1.293 -0.0148418 -8.30965 392.969 -4660.52
0.512652 -0.0939713 281.518 101325 0.85 314013 3295.47 281.518 0 364.003 0 1.293 -0.0207285 -11.6055 700.888 -6509.02
0.487812 -0.0954788 281.518 101325 0.85 314013 3295.47 281.518 0 364.003 0 1.293 -0.00319856 -1.79081 1046.94 -1004.39
0.46299 -0.0967417 281.518 101325 0.85 314013 3295.47 281.518 0 364.003 0 1.293 0.0358154 20.0524 1221.39 11246.5
0.438245 -0.097749 281.518 101325 0.85 314013 3295.47 281.518 0 364.003 0 1.293 0.103956 58.203 1620.49 32643.5
0.413637 -0.0984872 281.518 101325 0.85 314013 3295.47 281.518 0 364.003 0 1.293 0.188742 105.673 1852.6 59267.5
0.389228 -0.0989478 281.518 101325 0.85 314013 3295.47 281.518 0 364.003 0 1.293 0.322052 180.311 2273.48 101128
0.365075 -0.0991203 281.518 101325 0.85 314013 3295.47 281.518 0 364.003 0 1.293 0.459575 257.307 2500.31 144312
0.341235 -0.098995 281.518 101325 0.85 314013 3295.47 281.518 0 364.003 0 1.293 0.675922 378.436 2957.77 212248
0.317767 -0.0985648 281.518 101325 0.85 314013 3295.47 281.518 0 364.003 0 1.293 0.878571 491.896 3185.62 275883
0.29473 -0.0978207 281.518 101325 0.85 314013 3295.47 281.518 0 364.003 0 1.293 1.13831 637.319 3499.31 357444
0.27218 -0.09676 281.518 101325 0.85 314013 3295.47 281.518 0 364.003 0 1.293 1.52723 855.068 4040.72 479570
0.250167 -0.095378 281.518 101325 0.85 314013 3295.47 281.518 0 364.003 0 1.293 1.90386 1065.93 4374.68 597835
0.22875 -0.0936707 281.518 101325 0.85 314013 3295.47 281.518 0 364.003 0 1.293 2.32839 1303.62 4705.78 731144
0.207983 -0.0916425 281.518 101325 0.85 314013 3295.47 281.518 0 364.003 0 1.293 2.94289 1647.67 5256.38 924105
0.18791 -0.0892945 281.518 101325 0.85 314013 3295.47 281.518 0 364.003 0 1.293 3.5458 1985.23 5630.53 1.11343e+06
0.168588 -0.0866263 281.518 101325 0.85 314013 3295.47 281.518 0 364.003 0 1.293 4.27782 2395.07 6062.1 1.34329e+06
0.15006 -0.0836465 281.518 101325 0.85 314013 3295.47 281.518 0 364.003 0 1.293 5.20389 2913.56 6597.18 1.63409e+06
0.13237 -0.0803615 281.518 101325 0.85 314013 3295.47 281.518 0 364.003 0 1.293 6.37397 3568.67 7241.92 2.00151e+06
0.115565 -0.0767795 281.518 101325 0.85 314013 3295.47 281.518 0 364.003 0 1.293 7.60504 4257.92 7748.83 2.38808e+06
0.0996848 -0.072911 281.518 101325 0.85 314013 3295.47 281.518 0 364.003 0 1.293 9.27585 5193.37 8476.45 2.91273e+06
0.0847663 -0.068768 281.518 101325 0.85 314013 3295.47 281.518 0 364.003 0 1.293 11.1565 6246.3 9127.65 3.50327e+06
0.0708483 -0.0643637 281.518 101325 0.85 314013 3295.47 281.518 0 364.003 0 1.293 13.5161 7567.44 9873.53 4.24424e+06
0.0579642 -0.0597117 281.518 101325 0.85 314013 3295.47 281.518 0 364.003 0 1.293 16.453 9211.72 10688.2 5.16645e+06
0.046146 -0.054827 281.518 101325 0.85 314013 3295.47 281.518 0 364.003 0 1.293 20.0668 11235 11525.1 6.30124e+06
0.0354223 -0.0497255 281.518 101325 0.85 314013 3295.47 281.518 0 364.003 0 1.293 24.5989 13772.5 12391.4 7.72437e+06
0.0258195 -0.044423 281.518 101325 0.85 314013 3295.47 281.518 0 364.003 0 1.293 30.2942 16961.2 13239.9 9.51277e+06
0.0173618 -0.038936 281.518 101325 0.85 314013 3295.47 281.518 0 364.003 0 1.293 37.355 20914.4 13952.9 1.173e+07
0.0100696 -0.0332812 281.518 101325 0.85 314013 3295.47 281.518 0 364.003 0 1.293 45.9844 25745.8 14373.1 1.44397e+07
0.0039613 -0.0274755 281.518 101325 0.85 314013 3295.47 281.518 0 364.003 0 1.293 56.1942 31462.1 14254 1.76457e+07
-0.000947005 -0.0215362 281.518 101325 0.85 314013 3295.47 281.518 0 364.003 0 1.293 67.0742 37553.6 13166.3 2.10621e+07
-0.00464211 -0.0154825 281.518 101325 0.85 314013 3295.47 281.518 0 364.003 0 1.293 76.7801 42987.8 10758.8 2.41099e+07
-0.0071129 -0.0093348 281.518 101325 0.85 314013 3295.47 281.518 0 364.003 0 1.293 82.0354 45930.1 6951.37 2.57602e+07
-0.00835077 -0.00311995 281.518 101325 0.85 314013 3295.47 281.518 0 364.003 0 1.293 79.3243 44412.2 2346.57 2.49088e+07
-0.00835072 0.00312035 281.518 101325 0.85 314013 3295.47 281.518 0 364.003 0 1.293 68.8836 38566.7 -1831.3 2.16303e+07
-0.0071126 0.009335 281.518 101325 0.85 314013 3295.47 281.518 0 364.003 0 1.293 52.7348 29525.2 -4556.37 1.65594e+07
-0.00464149 0.0154827 281.518 101325 0.85 314013 3295.47 281.518 0 364.003 0 1.293 34.3557 19235.1 -5321.72 1.07881e+07
-0.000946143 0.0215365 281.518 101325 0.85 314013 3295.47 281.518 0 364.003 0 1.293 18.2273 10205.1 -4475.46 5.72359e+06
0.0039624 0.0274752 281.518 101325 0.85 314013 3295.47 281.518 0 364.003 0 1.293 6.83001 3823.99 -2896.46 2.14471e+06
0.010071 0.0332805 281.518 101325 0.85 314013 3295.47 281.518 0 364.003 0 1.293 -0.275355 -154.166 -1217.45 -86465.1
0.0173633 0.0389348 281.518 101325 0.85 314013 3295.47 281.518 0 364.003 0 1.293 -4.15639 -2327.08 210.552 -1.30516e+06
0.025821 0.0444213 281.518 101325 0.85 314013 3295.47 281.518 0 364.003 0 1.293 -5.92147 -3315.32 1273.07 -1.85942e+06
0.035424 0.0497235 281.518 101325 0.85 314013 3295.47 281.518 0 364.003 0 1.293 -6.53792 -3660.46 2038.4 -2.05299e+06
0.046148 0.0548248 281.518 101325 0.85 314013 3295.47 281.518 0 364.003 0 1.293 -6.42865 -3599.28 2513.11 -2.01868e+06
0.0579665 0.0597087 281.518 101325 0.85 314013 3295.47 281.518 0 364.003 0 1.293 -6.01228 -3366.16 2806.68 -1.88793e+06
0.0708505 0.0643602 281.518 101325 0.85 314013 3295.47 281.518 0 364.003 0 1.293 -5.41336 -3030.84 2934.93 -1.69986e+06
0.0847688 0.068764 281.518 101325 0.85 314013 3295.47 281.518 0 364.003 0 1.293 -4.77039 -2670.85 2956.94 -1.49796e+06
0.0996863 0.0729062 281.518 101325 0.85 314013 3295.47 281.518 0 364.003 0 1.293 -4.158 -2327.99 2918.94 -1.30567e+06
0.115568 0.0767738 281.518 101325 0.85 314013 3295.47 281.518 0 364.003 0 1.293 -3.55465 -1990.18 2800.28 -1.11621e+06
0.132373 0.0803548 281.518 101325 0.85 314013 3295.47 281.518 0 364.003 0 1.293 -3.09589 -1733.33 2747.66 -972150
0.150062 0.0836392 281.518 101325 0.85 314013 3295.47 281.518 0 364.003 0 1.293 -2.5235 -1412.86 2481.94 -792411
0.168593 0.0866182 281.518 101325 0.85 314013 3295.47 281.518 0 364.003 0 1.293 -2.16238 -1210.68 2384.48 -679015
0.187915 0.0892837 281.518 101325 0.85 314013 3295.47 281.518 0 364.003 0 1.293 -1.7983 -1006.83 2205.78 -564688
0.207985 0.091632 281.518 101325 0.85 314013 3295.47 281.518 0 364.003 0 1.293 -1.46074 -817.84 2002.69 -458690
0.228755 0.09366 281.518 101325 0.85 314013 3295.47 281.518 0 364.003 0 1.293 -1.18478 -663.334 1817.34 -372035
0.250173 0.0953645 281.518 101325 0.85 314013 3295.47 281.518 0 364.003 0 1.293 -0.905896 -507.194 1540.54 -284463
0.272182 0.0967463 281.518 101325 0.85 314013 3295.47 281.518 0 364.003 0 1.293 -0.709002 -396.957 1352.7 -222636
0.294732 0.0978065 281.518 101325 0.85 314013 3295.47 281.518 0 364.003 0 1.293 -0.528148 -295.7 1129.19 -165845
0.31777 0.0985503 281.518 101325 0.85 314013 3295.47 281.518 0 364.003 0 1.293 -0.370045 -207.181 867.371 -116199
0.341238 0.0989805 281.518 101325 0.85 314013 3295.47 281.518 0 364.003 0 1.293 -0.283746 -158.864 764.846 -89099.8
0.365075 0.0991057 281.518 101325 0.85 314013 3295.47 281.518 0 364.003 0 1.293 -0.180967 -101.32 538.76 -56825.9
0.389228 0.098933 281.518 101325 0.85 314013 3295.47 281.518 0 364.003 0 1.293 -0.0959585 -53.7254 248.202 -30132.2
0.41364 0.0984722 281.518 101325 0.85 314013 3295.47 281.518 0 364.003 0 1.293 -0.0490331 -27.4527 58.8611 -15397
0.438248 0.097734 281.518 101325 0.85 314013 3295.47 281.518 0 364.003 0 1.293 -0.0205221 -11.4899 -124.424 -6444.2
0.46299 0.0967265 281.518 101325 0.85 314013 3295.47 281.518 0 364.003 0 1.293 -0.0047507 -2.65983 -352.62 -1491.78
0.487813 0.0954635 281.518 101325 0.85 314013 3295.47 281.518 0 364.003 0 1.293 -0.00748219 -4.18914 -690.803 -2349.5
0.512652 0.0939562 281.518 101325 0.85 314013 3295.47 281.518 0 364.003 0 1.293 -0.0299704 -16.7798 -818.811 -9411.07
0.53745 0.092221 281.518 101325 0.85 314013 3295.47 281.518 0 364.003 0 1.293 -0.0678418 -37.9833 -1060.01 -21303.2
0.562142 0.0902675 281.518 101325 0.85 314013 3295.47 281.518 0 364.003 0 1.293 -0.123431 -69.1067 -1311.94 -38758.9
0.586675 0.0881098 281.518 101325 0.85 314013 3295.47 281.518 0 364.003 0 1.293 -0.201422 -112.772 -1603.66 -63249.1
0.61099 0.0857632 281.518 101325 0.85 314013 3295.47 281.518 0 364.003 0 1.293 -0.301631 -168.878 -1912.54 -94716
0.635023 0.083239 281.518 101325 0.85 314013 3295.47 281.518 0 364.003 0 1.293 -0.411591 -230.442 -2158.63 -129245
0.658715 0.0805527 281.518 101325 0.85 314013 3295.47 281.518 0 364.003 0 1.293 -0.524481 -293.647 -2344.14 -164694
0.682015 0.077718 281.518 101325 0.85 314013 3295.47 281.518 0 364.003 0 1.293 -0.699211 -391.475 -2731.87 -219561
0.704867 0.074748 281.518 101325 0.85 314013 3295.47 281.518 0 364.003 0 1.293 -0.888391 -497.393 -3068.43 -278966
0.727215 0.071657 281.518 101325 0.85 314013 3295.47 281.518 0 364.003 0 1.293 -1.08173 -605.642 -3351.68 -339678
0.749003 0.0684585 281.518 101325 0.85 314013 3295.47 281.518 0 364.003 0 1.293 -1.29258 -723.693 -3612.66 -405888
0.77018 0.0651665 281.518 101325 0.85 314013 3295.47 281.518 0 364.003 0 1.293 -1.62728 -911.082 -4150.72 -510986
0.790695 0.0617947 281.518 101325 0.85 314013 3295.47 281.518 0 364.003 0 1.293 -1.90074 -1064.19 -4434.57 -596856
0.810497 0.058357 281.518 101325 0.85 314013 3295.47 281.518 0 364.003 0 1.293 -2.24044 -1254.38 -4793.42 -703526
0.829542 0.0548675 281.518 101325 0.85 314013 3295.47 281.518 0 364.003 0 1.293 -2.71457 -1519.84 -5371.93 -852411
0.847785 0.0513395 281.518 101325 0.85 314013 3295.47 281.518 0 364.003 0 1.293 -3.23917 -1813.55 -5919.6 -1.01714e+06
0.86518 0.0477867 281.518 101325 0.85 314013 3295.47 281.518 0 364.003 0 1.293 -3.77621 -2114.23 -6386.83 -1.18578e+06
0.881685 0.0442235 281.518 101325 0.85 314013 3295.47 281.518 0 364.003 0 1.293 -4.54814 -2546.42 -7122.8 -1.42817e+06
0.897257 0.0406635 281.518 101325 0.85 314013 3295.47 281.518 0 364.003 0 1.293 -5.23759 -2932.43 -7586.73 -1.64467e+06
0.911865 0.0371203 281.518 101325 0.85 314013 3295.47 281.518 0 364.003 0 1.293 -6.32101 -3539.02 -8458.8 -1.98488e+06
0.925472 0.0336075 281.518 101325 0.85 314013 3295.47 281.518 0 364.003 0 1.293 -7.57802 -4242.79 -9359.17 -2.37959e+06
0.938045 0.0301382 281.518 101325 0.85 314013 3295.47 281.518 0 364.003 0 1.293 -9.18501 -5142.51 -10418.6 -2.88421e+06
0.949552 0.0267255 281.518 101325 0.85 314013 3295.47 281.518 0 364.003 0 1.293 -10.9839 -6149.69 -11387.5 -3.44909e+06
0.959965 0.023382 281.518 101325 0.85 314013 3295.47 281.518 0 364.003 0 1.293 -13.6431 -7638.53 -12877.4 -4.28412e+06
0.969258 0.0201195 281.518 101325 0.85 314013 3295.47 281.518 0 364.003 0 1.293 -17.1755 -9616.24 -14627.4 -5.39333e+06
0.977402 0.01695 281.518 101325 0.85 314013 3295.47 281.518 0 364.003 0 1.293 -21.8904 -12256 -16609 -6.87388e+06
0.98438 0.0138858 281.518 101325 0.85 314013 3295.47 281.518 0 364.003 0 1.293 -28.5723 -15997.1 -19013.7 -8.97205e+06
0.990167 0.0109388 281.518 101325 0.85 314013 3295.47 281.518 0 364.003 0 1.293 -39.3159 -22012.3 -22484.8 -1.23457e+07
0.994732 0.00812475 281.518 101325 0.85 314013 3295.47 281.518 0 364.003 0 1.293 -55.6496 -31157.2 -26344.9 -1.74747e+07
0.998032 0.0054695 281.518 101325 0.85 314013 3295.47 281.518 0 364.003 0 1.293 -84.7257 -47436.4 -31312.7 -2.6605e+07
1.00004 0.00302667 281.518 101325 0.85 314013 3295.47 281.518 0 364.003 0 1.293 -353.689 -198024 -55349.6 -1.11063e+08