TITLE = AIRFOIL CELL CENTERED SOLUTION VALUES 
VARIABLES = "X", "Y", "Speed", "P", "M","H", "S", "Xvel" 
ZONE T = "CELL CENTERS", I = 128 , J = 64, F=POINT 
0.999675 -0.000312425 264.958 101325 0.8 309488 3295.47 264.958
0.998715 -0.00110145 264.958 101325 0.8 309488 3295.47 264.958
0.996465 -0.00215532 264.958 101325 0.8 309488 3295.47 264.958
0.99297 -0.00339274 264.958 101325 0.8 309488 3295.47 264.958
0.988263 -0.0047892 264.958 101325 0.8 309488 3295.47 264.958
0.982363 -0.00633395 264.958 101325 0.8 309488 3295.47 264.958
0.97529 -0.00801908 264.958 101325 0.8 309488 3295.47 264.958
0.96707 -0.00983662 264.958 101325 0.8 309488 3295.47 264.958
0.957717 -0.0117785 264.958 101325 0.8 309488 3295.47 264.958
0.947258 -0.0138359 264.958 101325 0.8 309488 3295.47 264.958
0.935717 -0.015999 264.958 101325 0.8 309488 3295.47 264.958
0.923125 -0.0182576 264.958 101325 0.8 309488 3295.47 264.958
0.90951 -0.0206008 264.958 101325 0.8 309488 3295.47 264.958
0.894907 -0.023018 264.958 101325 0.8 309488 3295.47 264.958
0.879352 -0.0254985 264.958 101325 0.8 309488 3295.47 264.958
0.862875 -0.02803 264.958 101325 0.8 309488 3295.47 264.958
0.84552 -0.030601 264.958 101325 0.8 309488 3295.47 264.958
0.827333 -0.0332005 264.958 101325 0.8 309488 3295.47 264.958
0.80835 -0.035817 264.958 101325 0.8 309488 3295.47 264.958
0.78862 -0.0384383 264.958 101325 0.8 309488 3295.47 264.958
0.768195 -0.0410522 264.958 101325 0.8 309488 3295.47 264.958
0.74712 -0.0436475 264.958 101325 0.8 309488 3295.47 264.958
0.725445 -0.0462117 264.958 101325 0.8 309488 3295.47 264.958
0.703222 -0.048733 264.958 101325 0.8 309488 3295.47 264.958
0.680505 -0.0511993 264.958 101325 0.8 309488 3295.47 264.958
0.65735 -0.0535975 264.958 101325 0.8 309488 3295.47 264.958
0.633815 -0.055915 264.958 101325 0.8 309488 3295.47 264.958
0.609955 -0.0581393 264.958 101325 0.8 309488 3295.47 264.958
0.585823 -0.060257 264.958 101325 0.8 309488 3295.47 264.958
0.561478 -0.0622547 264.958 101325 0.8 309488 3295.47 264.958
0.53698 -0.0641193 264.958 101325 0.8 309488 3295.47 264.958
0.51239 -0.0658367 264.958 101325 0.8 309488 3295.47 264.958
0.48777 -0.067394 264.958 101325 0.8 309488 3295.47 264.958
0.463172 -0.0687772 264.958 101325 0.8 309488 3295.47 264.958
0.438658 -0.0699733 264.958 101325 0.8 309488 3295.47 264.958
0.414287 -0.0709695 264.958 101325 0.8 309488 3295.47 264.958
0.390122 -0.0717533 264.958 101325 0.8 309488 3295.47 264.958
0.36622 -0.0723135 264.958 101325 0.8 309488 3295.47 264.958
0.342635 -0.0726395 264.958 101325 0.8 309488 3295.47 264.958
0.319425 -0.072721 264.958 101325 0.8 309488 3295.47 264.958
0.296642 -0.0725497 264.958 101325 0.8 309488 3295.47 264.958
0.27435 -0.0721187 264.958 101325 0.8 309488 3295.47 264.958
0.2526 -0.0714225 264.958 101325 0.8 309488 3295.47 264.958
0.23144 -0.0704572 264.958 101325 0.8 309488 3295.47 264.958
0.210927 -0.0692205 264.958 101325 0.8 309488 3295.47 264.958
0.19111 -0.0677118 264.958 101325 0.8 309488 3295.47 264.958
0.172035 -0.0659325 264.958 101325 0.8 309488 3295.47 264.958
0.15375 -0.063886 264.958 101325 0.8 309488 3295.47 264.958
0.136295 -0.0615773 264.958 101325 0.8 309488 3295.47 264.958
0.119715 -0.059013 264.958 101325 0.8 309488 3295.47 264.958
0.104053 -0.0562012 264.958 101325 0.8 309488 3295.47 264.958
0.0893455 -0.0531515 264.958 101325 0.8 309488 3295.47 264.958
0.0756255 -0.0498753 264.958 101325 0.8 309488 3295.47 264.958
0.0629278 -0.0463838 264.958 101325 0.8 309488 3295.47 264.958
0.0512832 -0.0426892 264.958 101325 0.8 309488 3295.47 264.958
0.04072 -0.0388057 264.958 101325 0.8 309488 3295.47 264.958
0.0312637 -0.034746 264.958 101325 0.8 309488 3295.47 264.958
0.0229377 -0.0305232 264.958 101325 0.8 309488 3295.47 264.958
0.0157616 -0.026151 264.958 101325 0.8 309488 3295.47 264.958
0.00975305 -0.0216417 264.958 101325 0.8 309488 3295.47 264.958
0.00492719 -0.017008 264.958 101325 0.8 309488 3295.47 264.958
0.00129595 -0.012262 264.958 101325 0.8 309488 3295.47 264.958
-0.00113098 -0.007416 264.958 101325 0.8 309488 3295.47 264.958
-0.00234645 -0.00248472 264.958 101325 0.8 309488 3295.47 264.958
-0.00234641 0.00248483 264.958 101325 0.8 309488 3295.47 264.958
-0.00113086 0.00741605 264.958 101325 0.8 309488 3295.47 264.958
0.00129613 0.012262 264.958 101325 0.8 309488 3295.47 264.958
0.00492746 0.017008 264.958 101325 0.8 309488 3295.47 264.958
0.00975337 0.0216418 264.958 101325 0.8 309488 3295.47 264.958
0.015762 0.0261508 264.958 101325 0.8 309488 3295.47 264.958
0.0229383 0.0305228 264.958 101325 0.8 309488 3295.47 264.958
0.0312643 0.0347452 264.958 101325 0.8 309488 3295.47 264.958
0.0407205 0.038805 264.958 101325 0.8 309488 3295.47 264.958
0.0512837 0.0426885 264.958 101325 0.8 309488 3295.47 264.958
0.0629285 0.0463825 264.958 101325 0.8 309488 3295.47 264.958
0.0756263 0.049874 264.958 101325 0.8 309488 3295.47 264.958
0.0893463 0.0531502 264.958 101325 0.8 309488 3295.47 264.958
0.104054 0.0561998 264.958 101325 0.8 309488 3295.47 264.958
0.119715 0.0590112 264.958 101325 0.8 309488 3295.47 264.958
0.136295 0.061575 264.958 101325 0.8 309488 3295.47 264.958
0.15375 0.0638835 264.958 101325 0.8 309488 3295.47 264.958
0.172035 0.0659297 264.958 101325 0.8 309488 3295.47 264.958
0.19111 0.0677088 264.958 101325 0.8 309488 3295.47 264.958
0.210928 0.0692175 264.958 101325 0.8 309488 3295.47 264.958
0.231442 0.070454 264.958 101325 0.8 309488 3295.47 264.958
0.252603 0.071419 264.958 101325 0.8 309488 3295.47 264.958
0.274352 0.072115 264.958 101325 0.8 309488 3295.47 264.958
0.296645 0.0725455 264.958 101325 0.8 309488 3295.47 264.958
0.319425 0.0727165 264.958 101325 0.8 309488 3295.47 264.958
0.342635 0.072635 264.958 101325 0.8 309488 3295.47 264.958
0.36622 0.072309 264.958 101325 0.8 309488 3295.47 264.958
0.390122 0.0717485 264.958 101325 0.8 309488 3295.47 264.958
0.414288 0.0709645 264.958 101325 0.8 309488 3295.47 264.958
0.438657 0.0699683 264.958 101325 0.8 309488 3295.47 264.958
0.463172 0.068772 264.958 101325 0.8 309488 3295.47 264.958
0.48777 0.0673887 264.958 101325 0.8 309488 3295.47 264.958
0.51239 0.0658317 264.958 101325 0.8 309488 3295.47 264.958
0.53698 0.064114 264.958 101325 0.8 309488 3295.47 264.958
0.561478 0.0622495 264.958 101325 0.8 309488 3295.47 264.958
0.585823 0.0602517 264.958 101325 0.8 309488 3295.47 264.958
0.609955 0.058134 264.958 101325 0.8 309488 3295.47 264.958
0.633815 0.05591 264.958 101325 0.8 309488 3295.47 264.958
0.65735 0.0535925 264.958 101325 0.8 309488 3295.47 264.958
0.680505 0.0511942 264.958 101325 0.8 309488 3295.47 264.958
0.703222 0.0487283 264.958 101325 0.8 309488 3295.47 264.958
0.725445 0.0462073 264.958 101325 0.8 309488 3295.47 264.958
0.74712 0.043643 264.958 101325 0.8 309488 3295.47 264.958
0.768195 0.041048 264.958 101325 0.8 309488 3295.47 264.958
0.78862 0.0384343 264.958 101325 0.8 309488 3295.47 264.958
0.80835 0.0358133 264.958 101325 0.8 309488 3295.47 264.958
0.827333 0.0331972 264.958 101325 0.8 309488 3295.47 264.958
0.84552 0.030598 264.958 101325 0.8 309488 3295.47 264.958
0.862875 0.028027 264.958 101325 0.8 309488 3295.47 264.958
0.879352 0.0254957 264.958 101325 0.8 309488 3295.47 264.958
0.894907 0.0230158 264.958 101325 0.8 309488 3295.47 264.958
0.90951 0.0205985 264.958 101325 0.8 309488 3295.47 264.958
0.923125 0.0182554 264.958 101325 0.8 309488 3295.47 264.958
0.935717 0.0159972 264.958 101325 0.8 309488 3295.47 264.958
0.947258 0.0138346 264.958 101325 0.8 309488 3295.47 264.958
0.957718 0.0117775 264.958 101325 0.8 309488 3295.47 264.958
0.96707 0.00983563 264.958 101325 0.8 309488 3295.47 264.958
0.97529 0.00801807 264.958 101325 0.8 309488 3295.47 264.958
0.982363 0.00633322 264.958 101325 0.8 309488 3295.47 264.958
0.988262 0.00478883 264.958 101325 0.8 309488 3295.47 264.958
0.99297 0.00339252 264.958 101325 0.8 309488 3295.47 264.958
0.996465 0.00215519 264.958 101325 0.8 309488 3295.47 264.958
0.998715 0.00110137 264.958 101325 0.8 309488 3295.47 264.958
0.999675 0.0003124 264.958 101325 0.8 309488 3295.47 264.958
1.00073 -0.00093395 264.958 101325 0.8 309488 3295.47 264.958
1.00004 -0.00302688 264.958 101325 0.8 309488 3295.47 264.958
0.998032 -0.0054699 264.958 101325 0.8 309488 3295.47 264.958
0.994732 -0.00812565 264.958 101325 0.8 309488 3295.47 264.958
0.99017 -0.0109399 264.958 101325 0.8 309488 3295.47 264.958
0.984382 -0.0138875 264.958 101325 0.8 309488 3295.47 264.958
0.977402 -0.0169527 264.958 101325 0.8 309488 3295.47 264.958
0.969257 -0.0201225 264.958 101325 0.8 309488 3295.47 264.958
0.959965 -0.0233853 264.958 101325 0.8 309488 3295.47 264.958
0.949553 -0.0267298 264.958 101325 0.8 309488 3295.47 264.958
0.938045 -0.0301435 264.958 101325 0.8 309488 3295.47 264.958
0.925473 -0.0336135 264.958 101325 0.8 309488 3295.47 264.958
0.911868 -0.037127 264.958 101325 0.8 309488 3295.47 264.958
0.89726 -0.040671 264.958 101325 0.8 309488 3295.47 264.958
0.881685 -0.044232 264.958 101325 0.8 309488 3295.47 264.958
0.86518 -0.047796 264.958 101325 0.8 309488 3295.47 264.958
0.847788 -0.0513492 264.958 101325 0.8 309488 3295.47 264.958
0.829547 -0.054878 264.958 101325 0.8 309488 3295.47 264.958
0.8105 -0.0583685 264.958 101325 0.8 309488 3295.47 264.958
0.790695 -0.061807 264.958 101325 0.8 309488 3295.47 264.958
0.77018 -0.0651795 264.958 101325 0.8 309488 3295.47 264.958
0.749003 -0.068472 264.958 101325 0.8 309488 3295.47 264.958
0.727215 -0.0716708 264.958 101325 0.8 309488 3295.47 264.958
0.704868 -0.0747623 264.958 101325 0.8 309488 3295.47 264.958
0.682015 -0.0777328 264.958 101325 0.8 309488 3295.47 264.958
0.658715 -0.080568 264.958 101325 0.8 309488 3295.47 264.958
0.635023 -0.0832545 264.958 101325 0.8 309488 3295.47 264.958
0.61099 -0.0857787 264.958 101325 0.8 309488 3295.47 264.958
0.586675 -0.088125 264.958 101325 0.8 309488 3295.47 264.958
0.562142 -0.0902828 264.958 101325 0.8 309488 3295.47 264.958
0.53745 -0.0922363 264.958 101325 0.8 309488 3295.47 264.958
0.512652 -0.0939713 264.958 101325 0.8 309488 3295.47 264.958
0.487812 -0.0954788 264.958 101325 0.8 309488 3295.47 264.958
0.46299 -0.0967417 264.958 101325 0.8 309488 3295.47 264.958
0.438245 -0.097749 264.958 101325 0.8 309488 3295.47 264.958
0.413637 -0.0984872 264.958 101325 0.8 309488 3295.47 264.958
0.389228 -0.0989478 264.958 101325 0.8 309488 3295.47 264.958
0.365075 -0.0991203 264.958 101325 0.8 309488 3295.47 264.958
0.341235 -0.098995 264.958 101325 0.8 309488 3295.47 264.958
0.317767 -0.0985648 264.958 101325 0.8 309488 3295.47 264.958
0.29473 -0.0978207 264.958 101325 0.8 309488 3295.47 264.958
0.27218 -0.09676 264.958 101325 0.8 309488 3295.47 264.958
0.250167 -0.095378 264.958 101325 0.8 309488 3295.47 264.958
0.22875 -0.0936707 264.958 101325 0.8 309488 3295.47 264.958
0.207983 -0.0916425 264.958 101325 0.8 309488 3295.47 264.958
0.18791 -0.0892945 264.958 101325 0.8 309488 3295.47 264.958
0.168588 -0.0866263 264.958 101325 0.8 309488 3295.47 264.958
0.15006 -0.0836465 264.958 101325 0.8 309488 3295.47 264.958
0.13237 -0.0803615 264.958 101325 0.8 309488 3295.47 264.958
0.115565 -0.0767795 264.958 101325 0.8 309488 3295.47 264.958
0.0996848 -0.072911 264.958 101325 0.8 309488 3295.47 264.958
0.0847663 -0.068768 264.958 101325 0.8 309488 3295.47 264.958
0.0708483 -0.0643637 264.958 101325 0.8 309488 3295.47 264.958
0.0579642 -0.0597117 264.958 101325 0.8 309488 3295.47 264.958
0.046146 -0.054827 264.958 101325 0.8 309488 3295.47 264.958
0.0354223 -0.0497255 264.958 101325 0.8 309488 3295.47 264.958
0.0258195 -0.044423 264.958 101325 0.8 309488 3295.47 264.958
0.0173618 -0.038936 264.958 101325 0.8 309488 3295.47 264.958
0.0100696 -0.0332812 264.958 101325 0.8 309488 3295.47 264.958
0.0039613 -0.0274755 264.958 101325 0.8 309488 3295.47 264.958
-0.000947005 -0.0215362 264.958 101325 0.8 309488 3295.47 264.958
-0.00464211 -0.0154825 264.958 101325 0.8 309488 3295.47 264.958
-0.0071129 -0.0093348 264.958 101325 0.8 309488 3295.47 264.958
-0.00835077 -0.00311995 264.958 101325 0.8 309488 3295.47 264.958
-0.00835072 0.00312035 264.958 101325 0.8 309488 3295.47 264.958
-0.0071126 0.009335 264.958 101325 0.8 309488 3295.47 264.958
-0.00464149 0.0154827 264.958 101325 0.8 309488 3295.47 264.958
-0.000946143 0.0215365 264.958 101325 0.8 309488 3295.47 264.958
0.0039624 0.0274752 264.958 101325 0.8 309488 3295.47 264.958
0.010071 0.0332805 264.958 101325 0.8 309488 3295.47 264.958
0.0173633 0.0389348 264.958 101325 0.8 309488 3295.47 264.958
0.025821 0.0444213 264.958 101325 0.8 309488 3295.47 264.958
0.035424 0.0497235 264.958 101325 0.8 309488 3295.47 264.958
0.046148 0.0548248 264.958 101325 0.8 309488 3295.47 264.958
0.0579665 0.0597087 264.958 101325 0.8 309488 3295.47 264.958
0.0708505 0.0643602 264.958 101325 0.8 309488 3295.47 264.958
0.0847688 0.068764 264.958 101325 0.8 309488 3295.47 264.958
0.0996863 0.0729062 264.958 101325 0.8 309488 3295.47 264.958
0.115568 0.0767738 264.958 101325 0.8 309488 3295.47 264.958
0.132373 0.0803548 264.958 101325 0.8 309488 3295.47 264.958
0.150062 0.0836392 264.958 101325 0.8 309488 3295.47 264.958
0.168593 0.0866182 264.958 101325 0.8 309488 3295.47 264.958
0.187915 0.0892837 264.958 101325 0.8 309488 3295.47 264.958
0.207985 0.091632 264.958 101325 0.8 309488 3295.47 264.958
0.228755 0.09366 264.958 101325 0.8 309488 3295.47 264.958
0.250173 0.0953645 264.958 101325 0.8 309488 3295.47 264.958
0.272182 0.0967463 264.958 101325 0.8 309488 3295.47 264.958
0.294732 0.0978065 264.958 101325 0.8 309488 3295.47 264.958
0.31777 0.0985503 264.958 101325 0.8 309488 3295.47 264.958
0.341238 0.0989805 264.958 101325 0.8 309488 3295.47 264.958
0.365075 0.0991057 264.958 101325 0.8 309488 3295.47 264.958
0.389228 0.098933 264.958 101325 0.8 309488 3295.47 264.958
0.41364 0.0984722 264.958 101325 0.8 309488 3295.47 264.958
0.438248 0.097734 264.958 101325 0.8 309488 3295.47 264.958
0.46299 0.0967265 264.958 101325 0.8 309488 3295.47 264.958
0.487813 0.0954635 264.958 101325 0.8 309488 3295.47 264.958
0.512652 0.0939562 264.958 101325 0.8 309488 3295.47 264.958
0.53745 0.092221 264.958 101325 0.8 309488 3295.47 264.958
0.562142 0.0902675 264.958 101325 0.8 309488 3295.47 264.958
0.586675 0.0881098 264.958 101325 0.8 309488 3295.47 264.958
0.61099 0.0857632 264.958 101325 0.8 309488 3295.47 264.958
0.635023 0.083239 264.958 101325 0.8 309488 3295.47 264.958
0.658715 0.0805527 264.958 101325 0.8 309488 3295.47 264.958
0.682015 0.077718 264.958 101325 0.8 309488 3295.47 264.958
0.704867 0.074748 264.958 101325 0.8 309488 3295.47 264.958
0.727215 0.071657 264.958 101325 0.8 309488 3295.47 264.958
0.749003 0.0684585 264.958 101325 0.8 309488 3295.47 264.958
0.77018 0.0651665 264.958 101325 0.8 309488 3295.47 264.958
0.790695 0.0617947 264.958 101325 0.8 309488 3295.47 264.958
0.810497 0.058357 264.958 101325 0.8 309488 3295.47 264.958
0.829542 0.0548675 264.958 101325 0.8 309488 3295.47 264.958
0.847785 0.0513395 264.958 101325 0.8 309488 3295.47 264.958
0.86518 0.0477867 264.958 101325 0.8 309488 3295.47 264.958
0.881685 0.0442235 264.958 101325 0.8 309488 3295.47 264.958
0.897257 0.0406635 264.958 101325 0.8 309488 3295.47 264.958
0.911865 0.0371203 264.958 101325 0.8 309488 3295.47 264.958
0.925472 0.0336075 264.958 101325 0.8 309488 3295.47 264.958
0.938045 0.0301382 264.958 101325 0.8 309488 3295.47 264.958
0.949552 0.0267255 264.958 101325 0.8 309488 3295.47 264.958
0.959965 0.023382 264.958 101325 0.8 309488 3295.47 264.958
0.969258 0.0201195 264.958 101325 0.8 309488 3295.47 264.958
0.977402 0.01695 264.958 101325 0.8 309488 3295.47 264.958
0.98438 0.0138858 264.958 101325 0.8 309488 3295.47 264.958
0.990167 0.0109388 264.958 101325 0.8 309488 3295.47 264.958
0.994732 0.00812475 264.958 101325 0.8 309488 3295.47 264.958
0.998032 0.0054695 264.958 101325 0.8 309488 3295.47 264.958
1.00004 0.00302667 264.958 101325 0.8 309488 3295.47 264.958
1.00073 0.0009339 264.958 101325 0.8 309488 3295.47 264.958
1.00385 -0.00165933 264.958 101325 0.8 309488 3295.47 264.958
1.00322 -0.0051629 264.958 101325 0.8 309488 3295.47 264.958
1.00134 -0.00898103 264.958 101325 0.8 309488 3295.47 264.958
0.998158 -0.0130219 264.958 101325 0.8 309488 3295.47 264.958
0.9937 -0.017227 264.958 101325 0.8 309488 3295.47 264.958
0.988 -0.0215598 264.958 101325 0.8 309488 3295.47 264.958
0.981085 -0.0259952 264.958 101325 0.8 309488 3295.47 264.958
0.972985 -0.0305137 264.958 101325 0.8 309488 3295.47 264.958
0.96372 -0.0350982 264.958 101325 0.8 309488 3295.47 264.958
0.95332 -0.0397332 264.958 101325 0.8 309488 3295.47 264.958
0.941808 -0.0444032 264.958 101325 0.8 309488 3295.47 264.958
0.92921 -0.049092 264.958 101325 0.8 309488 3295.47 264.958
0.915567 -0.053784 264.958 101325 0.8 309488 3295.47 264.958
0.900907 -0.0584635 264.958 101325 0.8 309488 3295.47 264.958
0.88526 -0.063114 264.958 101325 0.8 309488 3295.47 264.958
0.86867 -0.0677197 264.958 101325 0.8 309488 3295.47 264.958
0.851177 -0.0722645 264.958 101325 0.8 309488 3295.47 264.958
0.832822 -0.0767318 264.958 101325 0.8 309488 3295.47 264.958
0.813647 -0.0811058 264.958 101325 0.8 309488 3295.47 264.958
0.7937 -0.0853707 264.958 101325 0.8 309488 3295.47 264.958
0.773025 -0.0895108 264.958 101325 0.8 309488 3295.47 264.958
0.751675 -0.0935085 264.958 101325 0.8 309488 3295.47 264.958
0.729705 -0.09735 264.958 101325 0.8 309488 3295.47 264.958
0.70716 -0.101022 264.958 101325 0.8 309488 3295.47 264.958
0.684095 -0.104507 264.958 101325 0.8 309488 3295.47 264.958
0.660573 -0.107787 264.958 101325 0.8 309488 3295.47 264.958
0.636645 -0.110849 264.958 101325 0.8 309488 3295.47 264.958
0.612362 -0.113679 264.958 101325 0.8 309488 3295.47 264.958
0.58779 -0.116265 264.958 101325 0.8 309488 3295.47 264.958
0.56299 -0.11859 264.958 101325 0.8 309488 3295.47 264.958
0.53802 -0.12064 264.958 101325 0.8 309488 3295.47 264.958
0.512938 -0.122402 264.958 101325 0.8 309488 3295.47 264.958
0.487803 -0.123865 264.958 101325 0.8 309488 3295.47 264.958
0.462678 -0.125012 264.958 101325 0.8 309488 3295.47 264.958
0.437623 -0.125835 264.958 101325 0.8 309488 3295.47 264.958
0.4127 -0.126323 264.958 101325 0.8 309488 3295.47 264.958
0.387972 -0.126465 264.958 101325 0.8 309488 3295.47 264.958
0.363498 -0.126252 264.958 101325 0.8 309488 3295.47 264.958
0.339333 -0.125677 264.958 101325 0.8 309488 3295.47 264.958
0.31554 -0.124735 264.958 101325 0.8 309488 3295.47 264.958
0.292177 -0.12342 264.958 101325 0.8 309488 3295.47 264.958
0.2693 -0.12173 264.958 101325 0.8 309488 3295.47 264.958
0.246965 -0.11966 264.958 101325 0.8 309488 3295.47 264.958
0.22523 -0.117207 264.958 101325 0.8 309488 3295.47 264.958
0.204148 -0.114382 264.958 101325 0.8 309488 3295.47 264.958
0.183768 -0.111188 264.958 101325 0.8 309488 3295.47 264.958
0.164142 -0.107623 264.958 101325 0.8 309488 3295.47 264.958
0.14532 -0.103699 264.958 101325 0.8 309488 3295.47 264.958
0.127345 -0.0994262 264.958 101325 0.8 309488 3295.47 264.958
0.110267 -0.0948145 264.958 101325 0.8 309488 3295.47 264.958
0.0941255 -0.0898763 264.958 101325 0.8 309488 3295.47 264.958
0.078958 -0.0846262 264.958 101325 0.8 309488 3295.47 264.958
0.064805 -0.079078 264.958 101325 0.8 309488 3295.47 264.958
0.051701 -0.073249 264.958 101325 0.8 309488 3295.47 264.958
0.0396782 -0.067157 264.958 101325 0.8 309488 3295.47 264.958
0.028767 -0.06082 264.958 101325 0.8 309488 3295.47 264.958
0.0189948 -0.0542572 264.958 101325 0.8 309488 3295.47 264.958
0.0103856 -0.0474887 264.958 101325 0.8 309488 3295.47 264.958
0.00296162 -0.0405347 264.958 101325 0.8 309488 3295.47 264.958
-0.00325795 -0.033416 264.958 101325 0.8 309488 3295.47 264.958
-0.00825645 -0.026155 264.958 101325 0.8 309488 3295.47 264.958
-0.0120195 -0.018776 264.958 101325 0.8 309488 3295.47 264.958
-0.0145355 -0.0113054 264.958 101325 0.8 309488 3295.47 264.958
-0.0157958 -0.00377522 264.958 101325 0.8 309488 3295.47 264.958
-0.0157955 0.00377603 264.958 101325 0.8 309488 3295.47 264.958
-0.0145348 0.0113061 264.958 101325 0.8 309488 3295.47 264.958
-0.0120183 0.0187765 264.958 101325 0.8 309488 3295.47 264.958
-0.00825485 0.0261553 264.958 101325 0.8 309488 3295.47 264.958
-0.00325595 0.0334155 264.958 101325 0.8 309488 3295.47 264.958
0.00296415 0.0405338 264.958 101325 0.8 309488 3295.47 264.958
0.0103885 0.0474873 264.958 101325 0.8 309488 3295.47 264.958
0.018998 0.054255 264.958 101325 0.8 309488 3295.47 264.958
0.0287708 0.060817 264.958 101325 0.8 309488 3295.47 264.958
0.0396823 0.067153 264.958 101325 0.8 309488 3295.47 264.958
0.0517053 0.073244 264.958 101325 0.8 309488 3295.47 264.958
0.0648095 0.079072 264.958 101325 0.8 309488 3295.47 264.958
0.0789627 0.084619 264.958 101325 0.8 309488 3295.47 264.958
0.0941295 0.089868 264.958 101325 0.8 309488 3295.47 264.958
0.110273 0.0948055 264.958 101325 0.8 309488 3295.47 264.958
0.127353 0.0994167 264.958 101325 0.8 309488 3295.47 264.958
0.145327 0.103689 264.958 101325 0.8 309488 3295.47 264.958
0.16415 0.10761 264.958 101325 0.8 309488 3295.47 264.958
0.183775 0.11117 264.958 101325 0.8 309488 3295.47 264.958
0.204155 0.114365 264.958 101325 0.8 309488 3295.47 264.958
0.225238 0.11719 264.958 101325 0.8 309488 3295.47 264.958
0.246973 0.11964 264.958 101325 0.8 309488 3295.47 264.958
0.269305 0.12171 264.958 101325 0.8 309488 3295.47 264.958
0.29218 0.1234 264.958 101325 0.8 309488 3295.47 264.958
0.315543 0.124715 264.958 101325 0.8 309488 3295.47 264.958
0.339338 0.125655 264.958 101325 0.8 309488 3295.47 264.958
0.3635 0.126227 264.958 101325 0.8 309488 3295.47 264.958
0.387975 0.12644 264.958 101325 0.8 309488 3295.47 264.958
0.412708 0.126298 264.958 101325 0.8 309488 3295.47 264.958
0.437628 0.12581 264.958 101325 0.8 309488 3295.47 264.958
0.462678 0.124988 264.958 101325 0.8 309488 3295.47 264.958
0.487802 0.12384 264.958 101325 0.8 309488 3295.47 264.958
0.512938 0.122375 264.958 101325 0.8 309488 3295.47 264.958
0.53802 0.120613 264.958 101325 0.8 309488 3295.47 264.958
0.56299 0.118563 264.958 101325 0.8 309488 3295.47 264.958
0.58779 0.116237 264.958 101325 0.8 309488 3295.47 264.958
0.612363 0.113654 264.958 101325 0.8 309488 3295.47 264.958
0.636645 0.110823 264.958 101325 0.8 309488 3295.47 264.958
0.660573 0.107762 264.958 101325 0.8 309488 3295.47 264.958
0.684095 0.104482 264.958 101325 0.8 309488 3295.47 264.958
0.707157 0.100997 264.958 101325 0.8 309488 3295.47 264.958
0.729702 0.0973283 264.958 101325 0.8 309488 3295.47 264.958
0.751675 0.093487 264.958 101325 0.8 309488 3295.47 264.958
0.773022 0.0894882 264.958 101325 0.8 309488 3295.47 264.958
0.793698 0.0853503 264.958 101325 0.8 309488 3295.47 264.958
0.813642 0.0810865 264.958 101325 0.8 309488 3295.47 264.958
0.832815 0.0767138 264.958 101325 0.8 309488 3295.47 264.958
0.851172 0.0722475 264.958 101325 0.8 309488 3295.47 264.958
0.868667 0.067704 264.958 101325 0.8 309488 3295.47 264.958
0.885258 0.0630998 264.958 101325 0.8 309488 3295.47 264.958
0.9009 0.0584505 264.958 101325 0.8 309488 3295.47 264.958
0.915563 0.0537725 264.958 101325 0.8 309488 3295.47 264.958
0.92921 0.049082 264.958 101325 0.8 309488 3295.47 264.958
0.941808 0.0443945 264.958 101325 0.8 309488 3295.47 264.958
0.95332 0.039726 264.958 101325 0.8 309488 3295.47 264.958
0.96372 0.0350922 264.958 101325 0.8 309488 3295.47 264.958
0.972985 0.0305087 264.958 101325 0.8 309488 3295.47 264.958
0.981085 0.0259913 264.958 101325 0.8 309488 3295.47 264.958
0.987995 0.021557 264.958 101325 0.8 309488 3295.47 264.958
0.993695 0.017225 264.958 101325 0.8 309488 3295.47 264.958
0.998158 0.0130203 264.958 101325 0.8 309488 3295.47 264.958
1.00134 0.0089801 264.958 101325 0.8 309488 3295.47 264.958
1.00323 0.0051626 264.958 101325 0.8 309488 3295.47 264.958
1.00385 0.00165927 264.958 101325 0.8 309488 3295.47 264.958
1.0089 -0.00241275 264.958 101325 0.8 309488 3295.47 264.958
1.0083 -0.00738362 264.958 101325 0.8 309488 3295.47 264.958
1.00645 -0.0126169 264.958 101325 0.8 309488 3295.47 264.958
1.00333 -0.018057 264.958 101325 0.8 309488 3295.47 264.958
0.998927 -0.023655 264.958 101325 0.8 309488 3295.47 264.958
0.993267 -0.0293723 264.958 101325 0.8 309488 3295.47 264.958
0.986382 -0.0351785 264.958 101325 0.8 309488 3295.47 264.958
0.97829 -0.0410487 264.958 101325 0.8 309488 3295.47 264.958
0.969015 -0.0469607 264.958 101325 0.8 309488 3295.47 264.958
0.958585 -0.052894 264.958 101325 0.8 309488 3295.47 264.958
0.947025 -0.0588292 264.958 101325 0.8 309488 3295.47 264.958
0.93436 -0.0647473 264.958 101325 0.8 309488 3295.47 264.958
0.920627 -0.070629 264.958 101325 0.8 309488 3295.47 264.958
0.90586 -0.0764555 264.958 101325 0.8 309488 3295.47 264.958
0.89009 -0.082208 264.958 101325 0.8 309488 3295.47 264.958
0.87336 -0.087868 264.958 101325 0.8 309488 3295.47 264.958
0.855705 -0.0934163 264.958 101325 0.8 309488 3295.47 264.958
0.83717 -0.0988332 264.958 101325 0.8 309488 3295.47 264.958
0.817802 -0.104103 264.958 101325 0.8 309488 3295.47 264.958
0.797645 -0.109206 264.958 101325 0.8 309488 3295.47 264.958
0.776743 -0.114124 264.958 101325 0.8 309488 3295.47 264.958
0.75515 -0.11884 264.958 101325 0.8 309488 3295.47 264.958
0.732922 -0.123338 264.958 101325 0.8 309488 3295.47 264.958
0.710105 -0.127598 264.958 101325 0.8 309488 3295.47 264.958
0.686753 -0.131605 264.958 101325 0.8 309488 3295.47 264.958
0.662928 -0.135343 264.958 101325 0.8 309488 3295.47 264.958
0.638685 -0.13879 264.958 101325 0.8 309488 3295.47 264.958
0.61408 -0.141935 264.958 101325 0.8 309488 3295.47 264.958
0.589173 -0.144768 264.958 101325 0.8 309488 3295.47 264.958
0.564022 -0.147267 264.958 101325 0.8 309488 3295.47 264.958
0.538695 -0.149423 264.958 101325 0.8 309488 3295.47 264.958
0.513247 -0.15122 264.958 101325 0.8 309488 3295.47 264.958
0.48774 -0.152642 264.958 101325 0.8 309488 3295.47 264.958
0.462235 -0.15368 264.958 101325 0.8 309488 3295.47 264.958
0.436793 -0.154323 264.958 101325 0.8 309488 3295.47 264.958
0.411477 -0.154565 264.958 101325 0.8 309488 3295.47 264.958
0.386355 -0.154392 264.958 101325 0.8 309488 3295.47 264.958
0.361483 -0.153795 264.958 101325 0.8 309488 3295.47 264.958
0.336923 -0.15277 264.958 101325 0.8 309488 3295.47 264.958
0.312735 -0.151315 264.958 101325 0.8 309488 3295.47 264.958
0.288975 -0.149428 264.958 101325 0.8 309488 3295.47 264.958
0.265705 -0.147103 264.958 101325 0.8 309488 3295.47 264.958
0.242985 -0.144338 264.958 101325 0.8 309488 3295.47 264.958
0.220867 -0.141137 264.958 101325 0.8 309488 3295.47 264.958
0.199408 -0.13751 264.958 101325 0.8 309488 3295.47 264.958
0.178663 -0.133458 264.958 101325 0.8 309488 3295.47 264.958
0.15868 -0.128985 264.958 101325 0.8 309488 3295.47 264.958
0.13951 -0.124105 264.958 101325 0.8 309488 3295.47 264.958
0.121202 -0.11883 264.958 101325 0.8 309488 3295.47 264.958
0.103803 -0.113173 264.958 101325 0.8 309488 3295.47 264.958
0.087355 -0.107147 264.958 101325 0.8 309488 3295.47 264.958
0.0718982 -0.100771 264.958 101325 0.8 309488 3295.47 264.958
0.0574723 -0.094061 264.958 101325 0.8 309488 3295.47 264.958
0.0441132 -0.087035 264.958 101325 0.8 309488 3295.47 264.958
0.031855 -0.0797152 264.958 101325 0.8 309488 3295.47 264.958
0.0207285 -0.0721225 264.958 101325 0.8 309488 3295.47 264.958
0.0107621 -0.0642787 264.958 101325 0.8 309488 3295.47 264.958
0.00198085 -0.0562075 264.958 101325 0.8 309488 3295.47 264.958
-0.00559197 -0.047933 264.958 101325 0.8 309488 3295.47 264.958
-0.0119363 -0.0394797 264.958 101325 0.8 309488 3295.47 264.958
-0.017035 -0.0308747 264.958 101325 0.8 309488 3295.47 264.958
-0.0208732 -0.0221467 264.958 101325 0.8 309488 3295.47 264.958
-0.023439 -0.0133264 264.958 101325 0.8 309488 3295.47 264.958
-0.024724 -0.00444827 264.958 101325 0.8 309488 3295.47 264.958
-0.0247235 0.00444955 264.958 101325 0.8 309488 3295.47 264.958
-0.0234377 0.0133275 264.958 101325 0.8 309488 3295.47 264.958
-0.0208715 0.0221475 264.958 101325 0.8 309488 3295.47 264.958
-0.0170327 0.0308752 264.958 101325 0.8 309488 3295.47 264.958
-0.0119333 0.0394795 264.958 101325 0.8 309488 3295.47 264.958
-0.0055881 0.0479317 264.958 101325 0.8 309488 3295.47 264.958
0.00198545 0.0562055 264.958 101325 0.8 309488 3295.47 264.958
0.0107672 0.0642757 264.958 101325 0.8 309488 3295.47 264.958
0.0207342 0.0721182 264.958 101325 0.8 309488 3295.47 264.958
0.0318613 0.0797095 264.958 101325 0.8 309488 3295.47 264.958
0.04412 0.0870278 264.958 101325 0.8 309488 3295.47 264.958
0.0574793 0.0940525 264.958 101325 0.8 309488 3295.47 264.958
0.0719055 0.100761 264.958 101325 0.8 309488 3295.47 264.958
0.0873628 0.107134 264.958 101325 0.8 309488 3295.47 264.958
0.103812 0.113157 264.958 101325 0.8 309488 3295.47 264.958
0.121213 0.118815 264.958 101325 0.8 309488 3295.47 264.958
0.13952 0.12409 264.958 101325 0.8 309488 3295.47 264.958
0.158688 0.128965 264.958 101325 0.8 309488 3295.47 264.958
0.17867 0.133433 264.958 101325 0.8 309488 3295.47 264.958
0.199417 0.137485 264.958 101325 0.8 309488 3295.47 264.958
0.220878 0.141113 264.958 101325 0.8 309488 3295.47 264.958
0.242995 0.144312 264.958 101325 0.8 309488 3295.47 264.958
0.265715 0.147077 264.958 101325 0.8 309488 3295.47 264.958
0.288983 0.149402 264.958 101325 0.8 309488 3295.47 264.958
0.312738 0.15129 264.958 101325 0.8 309488 3295.47 264.958
0.336928 0.152743 264.958 101325 0.8 309488 3295.47 264.958
0.36149 0.153762 264.958 101325 0.8 309488 3295.47 264.958
0.386362 0.154358 264.958 101325 0.8 309488 3295.47 264.958
0.411488 0.15453 264.958 101325 0.8 309488 3295.47 264.958
0.436798 0.154287 264.958 101325 0.8 309488 3295.47 264.958
0.462235 0.153645 264.958 101325 0.8 309488 3295.47 264.958
0.48774 0.152608 264.958 101325 0.8 309488 3295.47 264.958
0.513247 0.15118 264.958 101325 0.8 309488 3295.47 264.958
0.538695 0.149383 264.958 101325 0.8 309488 3295.47 264.958
0.564023 0.14723 264.958 101325 0.8 309488 3295.47 264.958
0.589172 0.14473 264.958 101325 0.8 309488 3295.47 264.958
0.61408 0.1419 264.958 101325 0.8 309488 3295.47 264.958
0.638685 0.138755 264.958 101325 0.8 309488 3295.47 264.958
0.662928 0.135307 264.958 101325 0.8 309488 3295.47 264.958
0.686752 0.131573 264.958 101325 0.8 309488 3295.47 264.958