VARIABLES = "X", "Y", "xSds", "ySds", "xSnorm","ySnorm", "xWds", "yWds","xWnorm", "yWnorm" 
ZONE T = "Grid normals 0 ", I = 128 , J = 64, F=POINT 

0.999675 -0.000312425 8.62e-05 -0.0006 0.142207 -0.989837 0 0.00035 0 0
1.00073 -0.00093395 0.0011635 0 1 0 0 -0.00215 0 0
1.00385 -0.00165933 0.0025723 0 1 0 0 -0.0041 0 0
1.0089 -0.00241275 0.004065 0 1 0 0 -0.006 0 0
1.01585 -0.00317765 0.005586 0 1 0 0 -0.0079 0 0
1.02465 -0.00395167 0.0071246 0 1 0 0 -0.0097 0 0
1.0353 -0.00473627 0.0086821 0 1 0 0 -0.0116 0 0
1.04785 -0.005534 0.010263 0 1 0 0 -0.0135 0 0
1.06225 -0.00634775 0.011873 0 1 0 0 -0.0153 0 0
1.0786 -0.00718025 0.013518 0 1 0 0 -0.0174 0 0
1.09695 -0.0080345 0.015203 0 1 0 0 -0.0193 0 0
1.11728 -0.00891375 0.016935 0 1 0 0 -0.0213 0 0
1.13967 -0.009821 0.01872 0.0001 0.999986 0.0053418 0 -0.0235 0 0
1.16423 -0.0107592 0.020564 0 1 0 0 -0.0256 0 0
1.19098 -0.0117317 0.022473 0.0001 0.99999 0.00444974 0 -0.0279 0 0
1.22003 -0.0127417 0.024454 0 1 0 0 -0.0302 0 0
1.25148 -0.0137927 0.026513 0.0001 0.999993 0.00377171 0 -0.0327 0 0
1.28537 -0.014888 0.028658 0 1 0 0 -0.0351 0 0
1.32185 -0.016031 0.030894 0.0001 0.999995 0.00323686 0 -0.0378 0 0
1.36103 -0.0172258 0.03323 0.0001 0.999995 0.00300932 0 -0.0406 0 0
1.403 -0.018476 0.035673 0 1 0 0 -0.0434 0 0
1.4479 -0.0197857 0.038231 0 1 0 0 -0.0464 0 0
1.4959 -0.0211592 0.040912 0 1 0 0 -0.0496 0 0
1.54712 -0.022601 0.043725 0 1 0 0 -0.0528 0 0
1.60173 -0.0241157 0.046679 0.0001 0.999998 0.00214229 0 -0.0564 0 0
1.6599 -0.025708 0.049784 0 1 0 0 -0.06 0 0
1.72182 -0.0273827 0.053048 0 1 0 0 -0.0638 0 0
1.7877 -0.029146 0.056483 0.0001 0.999998 0.00177044 0 -0.0679 0 0
1.85772 -0.031003 0.060101 0.0001 0.999999 0.00166386 0 -0.0722 0 0
1.93213 -0.0329595 0.063911 0 1 0 0 -0.0766 0 0
2.01112 -0.035022 0.067927 0.0001 0.999999 0.00147217 0 -0.0814 0 0
2.09497 -0.0371973 0.072161 0 1 0 0 -0.0863 0 0
2.18398 -0.039492 0.076628 0.0001 0.999999 0.001305 0 -0.0917 0 0
2.27838 -0.0419137 0.08134 0 1 0 0 -0.0971 0 0
2.3785 -0.0444703 0.086315 0.0001 0.999999 0.00115855 0 -0.1031 0 0
2.48468 -0.0471695 0.091566 0.0001 0.999999 0.00109211 0 -0.1093 0 0
2.59722 -0.0500205 0.097112 0 1 0 0 -0.1158 0 0
2.7165 -0.0530325 0.10297 0.0001 1 0.000971156 0 -0.1227 0 0
2.8429 -0.056215 0.10916 0.0001 1 0.000916086 0 -0.1301 0 0
2.97687 -0.05958 0.1157 0.0001 1 0.000864304 0 -0.1379 0 0
3.11883 -0.0631375 0.12262 0 1 0 0 -0.146 0 0
3.2692 -0.0668975 0.12993 0.0001 1 0.000769645 0 -0.1547 0 0
3.4285 -0.0708725 0.13766 0.0001 1 0.000726427 0 -0.1639 0 0
3.59725 -0.0750775 0.14583 0.0001 1 0.00068573 0 -0.1736 0 0
3.77603 -0.079525 0.15448 0.0001 1 0.000647333 0 -0.184 0 0
3.96542 -0.08423 0.16362 0 1 0 0 -0.1948 0 0
4.16605 -0.08921 0.1733 0.0001 1 0.000577034 0 -0.2064 0 0
4.3786 -0.09448 0.18354 0.0001 1 0.00054484 0 -0.2187 0 0
4.60382 -0.10006 0.19438 0.0001 1 0.000514456 0 -0.2318 0 0
4.84247 -0.105967 0.20586 0 1 0 0 -0.2455 0 0
5.0953 -0.112223 0.21801 0.0001 1 0.000458695 0 -0.2601 0 0
5.36325 -0.118847 0.23088 0.0001 1 0.000433125 0 -0.2758 0 0
5.6473 -0.125865 0.24451 0.0001 1 0.000408981 0 -0.2923 0 0
5.94835 -0.133302 0.25895 0.0001 1 0.000386175 0 -0.3098 0 0
6.26755 -0.141185 0.27426 0.0001 1 0.000364617 0 -0.3286 0 0
6.6061 -0.149543 0.29048 0.0001 1 0.000344258 0 -0.3485 0 0
6.96523 -0.158408 0.30769 0.0001 1 0.000325002 0 -0.3698 0 0
7.34633 -0.16781 0.32594 0 1 0 0 -0.3924 0 0
7.75095 -0.177792 0.3453 0.0001 1 0.000289603 0 -0.4168 0 0
8.1808 -0.1884 0.36587 0.0001 1 0.000273321 0 -0.4429 0 0
8.63782 -0.199678 0.38773 0.0001 1 0.000257911 0 -0.4712 0 0
9.12435 -0.211682 0.41098 0 1 0 0 -0.5019 0 0
9.64345 -0.224493 0.43575 0 1 0 0 -0.5363 0 0
10.2028 -0.238225 0.46222 0 1 0 0 -0.5884 0 0
0.998715 -0.00110145 0.00025799 -0.00181 0.14111 -0.989994 -0.0010773 -0.00025 -0.974115 -0.974115
1.00004 -0.00302688 0.0016484 -0.00143 0.755375 -0.655293 -0.0014088 -0.00215 -0.548075 -0.548075
1.00322 -0.0051629 0.0029875 -0.0013 0.916948 -0.399007 -0.0014927 -0.0041 -0.342106 -0.342106
1.0083 -0.00738362 0.0043895 -0.0012 0.964604 -0.263703 -0.001521 -0.006 -0.245727 -0.245727
1.01525 -0.0096494 0.005843 -0.0012 0.979555 -0.201175 -0.0015386 -0.0079 -0.191168 -0.191168
1.02405 -0.0119509 0.0073334 -0.0012 0.986875 -0.161487 -0.0015575 -0.0097 -0.158536 -0.158536
1.03468 -0.0142898 0.0088569 -0.0012 0.990946 -0.134261 -0.0015809 -0.0116 -0.135036 -0.135036
1.0472 -0.0166717 0.010412 -0.0013 0.992295 -0.123894 -0.00161 -0.0135 -0.11842 -0.11842
1.0616 -0.0191043 0.012003 -0.0013 0.994186 -0.107677 -0.001645 -0.0153 -0.1069 -0.1069
1.07793 -0.0215948 0.013632 -0.0013 0.995484 -0.0949332 -0.001685 -0.0174 -0.0963882 -0.0963882
1.09625 -0.024152 0.015305 -0.0014 0.995842 -0.0910931 -0.001732 -0.0193 -0.0893817 -0.0893817
1.11658 -0.0267853 0.017027 -0.0014 0.996637 -0.0819458 -0.001785 -0.0214 -0.0831226 -0.0831226
1.13895 -0.029503 0.018804 -0.0015 0.996833 -0.0795177 -0.001844 -0.0234 -0.0785599 -0.0785599
1.16348 -0.0323143 0.02064 -0.0015 0.99737 -0.0724833 -0.001909 -0.0257 -0.0740761 -0.0740761
1.1902 -0.0352288 0.022543 -0.0016 0.997491 -0.0707974 -0.001981 -0.0278 -0.0710788 -0.0710788
1.2192 -0.0382562 0.024518 -0.0016 0.997877 -0.0651197 -0.002059 -0.0303 -0.0677974 -0.0677974
1.2506 -0.0414067 0.026573 -0.0018 0.997714 -0.0675831 -0.002145 -0.0326 -0.0656556 -0.0656556
1.28448 -0.0446903 0.028712 -0.0018 0.998041 -0.0625687 -0.002236 -0.0352 -0.063395 -0.063395
1.32092 -0.0481175 0.030945 -0.0019 0.99812 -0.0612838 -0.002336 -0.0378 -0.0616813 -0.0616813
1.36003 -0.0517 0.033277 -0.002 0.998199 -0.0599933 -0.002443 -0.0405 -0.0602115 -0.0602115
1.40193 -0.0554492 0.035717 -0.0021 0.998276 -0.0586942 -0.002558 -0.0434 -0.058838 -0.058838
1.44678 -0.059377 0.038272 -0.0022 0.998352 -0.0573885 -0.002681 -0.0464 -0.057684 -0.057684
1.4947 -0.0634963 0.04095 -0.0023 0.998426 -0.0560777 -0.002813 -0.0496 -0.0566227 -0.0566227
1.54587 -0.0678202 0.043761 -0.0025 0.998372 -0.0570355 -0.002954 -0.0529 -0.0557543 -0.0557543
1.60042 -0.0723628 0.046712 -0.0026 0.998455 -0.0555742 -0.003105 -0.0563 -0.0550673 -0.0550673
1.65853 -0.0771373 0.049813 -0.0027 0.998534 -0.0541233 -0.003264 -0.06 -0.0543197 -0.0543197
1.7204 -0.0821602 0.053072 -0.0028 0.998611 -0.0526852 -0.003435 -0.0639 -0.0536784 -0.0536784
1.7862 -0.087451 0.056507 -0.003 0.998594 -0.0530161 -0.003618 -0.0679 -0.0532088 -0.0532088
1.85613 -0.0930205 0.060129 -0.0032 0.998587 -0.0531437 -0.00381 -0.0721 -0.0527696 -0.0527696
1.93043 -0.098887 0.063929 -0.0033 0.99867 -0.0515511 -0.004016 -0.0767 -0.0522882 -0.0522882
2.00932 -0.105074 0.067943 -0.0036 0.998599 -0.0529114 -0.004234 -0.0813 -0.0520082 -0.0520082
2.09307 -0.1116 0.072179 -0.0037 0.998689 -0.0511942 -0.004467 -0.0864 -0.0516324 -0.0516324
2.18195 -0.118485 0.076642 -0.004 0.998641 -0.0521198 -0.004712 -0.0916 -0.0513731 -0.0513731
2.27625 -0.125749 0.08136 -0.0042 0.99867 -0.0515538 -0.004975 -0.0972 -0.0511162 -0.0511162
2.37627 -0.133418 0.086325 -0.0044 0.998704 -0.0509041 -0.005251 -0.1031 -0.0508652 -0.0508652
2.4823 -0.141517 0.091584 -0.0047 0.998686 -0.0512516 -0.005546 -0.1092 -0.0507222 -0.0507222
2.5947 -0.150068 0.097128 -0.0049 0.99873 -0.0503848 -0.005858 -0.1159 -0.0504791 -0.0504791
2.71385 -0.159103 0.10298 -0.0053 0.998678 -0.0513983 -0.00619 -0.1227 -0.0503842 -0.0503842
2.8401 -0.16865 0.10917 -0.0055 0.998733 -0.0503163 -0.00654 -0.1301 -0.0502056 -0.0502056
2.97387 -0.178742 0.11571 -0.0059 0.998703 -0.0509234 -0.00692 -0.1378 -0.0501545 -0.0501545
3.11565 -0.189412 0.12262 -0.0062 0.998724 -0.0504982 -0.00731 -0.1461 -0.0499717 -0.0499717
3.26585 -0.20069 0.12993 -0.0066 0.998712 -0.0507312 -0.00773 -0.1547 -0.0499054 -0.0499054
3.42495 -0.212615 0.13765 -0.007 0.998709 -0.050788 -0.00817 -0.1639 -0.0497857 -0.0497857
3.5935 -0.22523 0.14583 -0.0074 0.998715 -0.0506788 -0.00865 -0.1736 -0.0497654 -0.0497654
3.77205 -0.238572 0.15447 -0.0078 0.998728 -0.050431 -0.00914 -0.1839 -0.0496397 -0.0496397
3.96122 -0.252688 0.16362 -0.0082 0.998747 -0.0500533 -0.00968 -0.1949 -0.0496054 -0.0496054
4.16162 -0.267628 0.17329 -0.0087 0.998742 -0.0501417 -0.01024 -0.2064 -0.0495515 -0.0495515
4.3739 -0.283438 0.18354 -0.0092 0.998746 -0.0500625 -0.01084 -0.2187 -0.0495048 -0.0495048
4.59882 -0.300173 0.19437 -0.0098 0.998731 -0.0503553 -0.01148 -0.2317 -0.0494861 -0.0494861
4.83717 -0.317892 0.20584 -0.0103 0.99875 -0.0499763 -0.01215 -0.2456 -0.0494103 -0.0494103
5.0897 -0.336657 0.21799 -0.011 0.998729 -0.0503969 -0.01287 -0.2601 -0.0494205 -0.0494205
5.3573 -0.356533 0.23086 -0.0116 0.99874 -0.0501836 -0.01363 -0.2758 -0.0493596 -0.0493596
5.64098 -0.377585 0.24449 -0.0124 0.998716 -0.0506527 -0.01444 -0.2923 -0.0493411 -0.0493411
5.94165 -0.399892 0.25893 -0.0131 0.998723 -0.0505282 -0.01531 -0.3098 -0.0493587 -0.0493587
6.26042 -0.423535 0.27422 -0.0139 0.998718 -0.0506242 -0.01622 -0.3286 -0.0493009 -0.0493009
6.59852 -0.448603 0.29044 -0.0148 0.998704 -0.0508911 -0.01721 -0.3485 -0.049323 -0.049323
6.95717 -0.47519 0.30763 -0.0157 0.9987 -0.050969 -0.01825 -0.3697 -0.0493043 -0.0493043
7.33775 -0.503398 0.32587 -0.0166 0.998705 -0.0508746 -0.01936 -0.3925 -0.0492649 -0.0492649
7.7418 -0.53334 0.34524 -0.0178 0.998674 -0.0514899 -0.02057 -0.4168 -0.0492922 -0.0492922
8.171 -0.565145 0.36578 -0.019 0.998654 -0.0518739 -0.02186 -0.4429 -0.0492965 -0.0492965
8.62725 -0.598955 0.3876 -0.0204 0.998618 -0.0525588 -0.02325 -0.4711 -0.0492926 -0.0492926
9.1128 -0.634935 0.4108 -0.022 0.998569 -0.0534774 -0.02477 -0.5019 -0.0492925 -0.0492925
9.63042 -0.673285 0.43548 -0.0242 0.99846 -0.0554853 -0.02647 -0.5363 -0.0492967 -0.0492967
10.1838 -0.714252 0.46172 -0.0279 0.998179 -0.0603162 -0.02846 -0.5764 -0.0493154 -0.0493154
0.996465 -0.00215532 0.00042789 -0.003 0.141201 -0.989981 -0.00246771 -0.00063 -0.968923 -0.968923
0.998032 -0.0054699 0.0018812 -0.00276 0.56321 -0.826313 -0.0027479 -0.00228 -0.769585 -0.769585
1.00134 -0.00898103 0.003255 -0.00255 0.787199 -0.616699 -0.0028947 -0.0042 -0.567487 -0.567487
1.00645 -0.0126169 0.0046405 -0.0025 0.880371 -0.474286 -0.0029745 -0.006 -0.444165 -0.444165
1.0134 -0.016338 0.00606 -0.0025 0.924425 -0.381364 -0.003029 -0.0079 -0.358005 -0.358005
1.02217 -0.020131 0.007518 -0.0025 0.94891 -0.315546 -0.003081 -0.0097 -0.302725 -0.302725
1.03277 -0.0239957 0.009012 -0.0026 0.960813 -0.277199 -0.003136 -0.0115 -0.263089 -0.263089
1.04525 -0.027939 0.010543 -0.0025 0.973019 -0.230726 -0.003201 -0.0135 -0.230714 -0.230714
1.0596 -0.0319712 0.012111 -0.0027 0.976039 -0.217596 -0.003274 -0.0153 -0.20925 -0.20925
1.07587 -0.0361043 0.013722 -0.0027 0.981186 -0.193062 -0.003358 -0.0173 -0.190548 -0.190548
1.09413 -0.0403512 0.015379 -0.0028 0.983827 -0.179122 -0.003454 -0.0193 -0.176165 -0.176165
1.11437 -0.0447268 0.017086 -0.0029 0.9859 -0.167336 -0.003562 -0.0213 -0.16494 -0.16494
1.13667 -0.0492448 0.018849 -0.003 0.98757 -0.157181 -0.00368 -0.0234 -0.155356 -0.155356
1.16112 -0.0539198 0.020674 -0.0031 0.988944 -0.148289 -0.003812 -0.0256 -0.147282 -0.147282
1.18775 -0.0587678 0.022565 -0.0032 0.990094 -0.140408 -0.003956 -0.0278 -0.140883 -0.140883
1.21663 -0.063805 0.02453 -0.0034 0.99053 -0.137293 -0.004114 -0.0301 -0.135419 -0.135419
1.2479 -0.0690475 0.026574 -0.0035 0.991438 -0.13058 -0.004284 -0.0326 -0.130291 -0.130291
1.28165 -0.074512 0.028704 -0.0037 0.991794 -0.127844 -0.004469 -0.0351 -0.126302 -0.126302
1.31798 -0.0802168 0.030926 -0.0039 0.992142 -0.125117 -0.004668 -0.0377 -0.122881 -0.122881
1.35695 -0.0861808 0.033249 -0.004 0.992841 -0.119443 -0.004883 -0.0404 -0.119993 -0.119993
1.3987 -0.0924232 0.03568 -0.0042 0.993143 -0.116906 -0.005113 -0.0433 -0.117268 -0.117268
1.4434 -0.0989637 0.038227 -0.0044 0.993441 -0.114347 -0.005359 -0.0463 -0.114978 -0.114978
1.49115 -0.105822 0.040898 -0.0046 0.993734 -0.11177 -0.005624 -0.0494 -0.113115 -0.113115
1.54212 -0.113022 0.043694 -0.0048 0.99402 -0.109198 -0.005905 -0.0528 -0.111144 -0.111144
1.59647 -0.120587 0.046639 -0.0051 0.994074 -0.108703 -0.006206 -0.0562 -0.10976 -0.10976
1.65437 -0.128537 0.049733 -0.0054 0.994157 -0.107945 -0.006523 -0.0599 -0.108258 -0.108258
1.716 -0.136902 0.05298 -0.0057 0.994262 -0.10697 -0.00687 -0.0637 -0.107227 -0.107227
1.78153 -0.145712 0.05641 -0.0061 0.994204 -0.10751 -0.00724 -0.0677 -0.106336 -0.106336
1.8512 -0.154988 0.06 -0.0064 0.994359 -0.106065 -0.00761 -0.072 -0.105109 -0.105109
1.92523 -0.16476 0.06381 -0.0068 0.99437 -0.105966 -0.00803 -0.0764 -0.104529 -0.104529
2.00385 -0.175065 0.06781 -0.0071 0.994563 -0.104135 -0.00847 -0.0812 -0.103747 -0.103747
2.0873 -0.185933 0.07203 -0.0075 0.994623 -0.103563 -0.00893 -0.0861 -0.103163 -0.103163
2.17585 -0.197398 0.07648 -0.0079 0.994707 -0.102748 -0.00943 -0.0914 -0.102628 -0.102628
2.2698 -0.209498 0.08117 -0.0083 0.994813 -0.101724 -0.00994 -0.097 -0.10194 -0.10194
2.36942 -0.22227 0.08614 -0.0089 0.994705 -0.102773 -0.01051 -0.1028 -0.101707 -0.101707
2.47507 -0.235757 0.09136 -0.0094 0.994749 -0.102349 -0.01109 -0.109 -0.101221 -0.101221
2.58708 -0.250003 0.09689 -0.0099 0.99482 -0.101648 -0.01171 -0.1155 -0.100868 -0.100868
2.70578 -0.265053 0.10274 -0.0104 0.994916 -0.100712 -0.01238 -0.1225 -0.100549 -0.100549
2.83155 -0.280955 0.10891 -0.0111 0.994846 -0.101394 -0.01308 -0.1297 -0.100339 -0.100339
2.96483 -0.297763 0.11543 -0.0117 0.994902 -0.100843 -0.01383 -0.1375 -0.100077 -0.100077
3.10608 -0.315532 0.12232 -0.0124 0.994901 -0.100857 -0.01462 -0.1457 -0.0998418 -0.0998418
3.25572 -0.334317 0.12961 -0.0131 0.994931 -0.10056 -0.01545 -0.1543 -0.0996314 -0.0996314
3.41423 -0.354183 0.13732 -0.0138 0.994988 -0.0999915 -0.01635 -0.1635 -0.0995037 -0.0995037
3.58215 -0.375195 0.14547 -0.0147 0.994933 -0.10054 -0.01729 -0.1732 -0.0993331 -0.0993331
3.76005 -0.39742 0.15409 -0.0155 0.994979 -0.100085 -0.01829 -0.1835 -0.0991816 -0.0991816
3.94853 -0.420932 0.16321 -0.0165 0.994929 -0.100584 -0.01935 -0.1944 -0.0990476 -0.0990476
4.14818 -0.445815 0.17286 -0.0174 0.994972 -0.100153 -0.02049 -0.2059 -0.0990252 -0.0990252
4.35965 -0.47215 0.18306 -0.0185 0.994932 -0.100548 -0.02167 -0.2181 -0.0988713 -0.0988713
4.58375 -0.500025 0.19388 -0.0195 0.99498 -0.100073 -0.02295 -0.2312 -0.0987792 -0.0987792
4.82118 -0.529537 0.20532 -0.0207 0.994956 -0.10031 -0.0243 -0.2449 -0.0987393 -0.0987393
5.07273 -0.56079 0.21743 -0.022 0.99492 -0.100668 -0.02574 -0.2595 -0.0987064 -0.0987064
5.33933 -0.593892 0.23025 -0.0233 0.994919 -0.10068 -0.02726 -0.275 -0.0986438 -0.0986438
5.6219 -0.628958 0.24384 -0.0246 0.99495 -0.100376 -0.02888 -0.2916 -0.0985576 -0.0985576
5.92143 -0.666108 0.25823 -0.0262 0.994892 -0.100942 -0.0306 -0.309 -0.0985471 -0.0985471
6.23897 -0.705483 0.27348 -0.0277 0.99491 -0.100772 -0.03244 -0.3277 -0.0985115 -0.0985115
6.57572 -0.747227 0.28965 -0.0294 0.994888 -0.100983 -0.0344 -0.3476 -0.0984832 -0.0984832
6.93295 -0.791497 0.30678 -0.0313 0.994835 -0.101501 -0.03649 -0.3688 -0.0984617 -0.0984617
7.31198 -0.838477 0.32495 -0.0333 0.99479 -0.101943 -0.03873 -0.3913 -0.0984965 -0.0984965
7.7143 -0.888323 0.34426 -0.0354 0.994755 -0.10229 -0.04111 -0.4156 -0.0984368 -0.0984368
8.14157 -0.941245 0.36465 -0.0378 0.99467 -0.103109 -0.04368 -0.4415 -0.0984548 -0.0984548
8.5956 -0.997502 0.38637 -0.0405 0.994551 -0.104251 -0.04645 -0.4695 -0.0984544 -0.0984544
9.07845 -1.05733 0.40942 -0.0437 0.994352 -0.106134 -0.04945 -0.4997 -0.0984784 -0.0984784
9.59235 -1.12099 0.43387 -0.0475 0.99406 -0.10883 -0.05271 -0.5326 -0.0984862 -0.0984862
10.1397 -1.18878 0.45976 -0.0527 0.993495 -0.113879 -0.05623 -0.5683 -0.0984634 -0.0984634
0.99297 -0.00339274 0.00059502 -0.0042 0.140271 -0.990113 -0.00392102 -0.00087 -0.976258 -0.976258
0.994732 -0.00812565 0.0020456 -0.00402 0.453517 -0.891248 -0.0041217 -0.00249 -0.855933 -0.855933
0.998158 -0.0130219 0.0034412 -0.00387 0.664493 -0.747294 -0.0042802 -0.00425 -0.709606 -0.709606
1.00333 -0.018057 0.004827 -0.0038 0.785736 -0.618562 -0.004394 -0.006 -0.590839 -0.590839
1.01028 -0.0232077 0.006233 -0.0037 0.859906 -0.510453 -0.004487 -0.0079 -0.493873 -0.493873
1.019 -0.0284648 0.007668 -0.0038 0.896011 -0.444032 -0.004575 -0.0096 -0.430207 -0.430207
1.02958 -0.0338297 0.009137 -0.0038 0.923331 -0.384005 -0.004667 -0.0116 -0.373251 -0.373251
1.042 -0.0393112 0.010644 -0.0039 0.938956 -0.344037 -0.004769 -0.0133 -0.337529 -0.337529
1.05628 -0.0449225 0.012191 -0.0039 0.95245 -0.304696 -0.004885 -0.0153 -0.304154 -0.304154
1.07248 -0.0506795 0.013781 -0.004 0.960364 -0.27875 -0.005015 -0.0172 -0.279914 -0.279914
1.0906 -0.0565995 0.015419 -0.0041 0.966418 -0.256976 -0.005161 -0.0192 -0.259587 -0.259587
1.11072 -0.0627013 0.017109 -0.0043 0.969838 -0.243749 -0.005325 -0.0212 -0.243612 -0.243612
1.1329 -0.0690048 0.018854 -0.0044 0.973833 -0.227266 -0.005505 -0.0233 -0.229936 -0.229936
1.1572 -0.07553 0.020663 -0.0046 0.976105 -0.217301 -0.005703 -0.0255 -0.218255 -0.218255
1.18365 -0.0822983 0.022539 -0.0048 0.978066 -0.208293 -0.005921 -0.0276 -0.209756 -0.209756
1.21235 -0.089333 0.024488 -0.005 0.979785 -0.200054 -0.006158 -0.03 -0.201074 -0.201074
1.24345 -0.0966535 0.02652 -0.0052 0.981314 -0.192414 -0.006414 -0.0324 -0.194194 -0.194194
1.27697 -0.104285 0.028626 -0.0054 0.982669 -0.18537 -0.006691 -0.0349 -0.18829 -0.18829
1.31307 -0.112255 0.030835 -0.0057 0.98334 -0.181775 -0.006991 -0.0376 -0.182798 -0.182798
1.35182 -0.120589 0.033144 -0.006 0.984006 -0.178133 -0.007314 -0.0402 -0.179002 -0.179002
1.39332 -0.129312 0.03556 -0.0063 0.984666 -0.174449 -0.00766 -0.0431 -0.174984 -0.174984
1.43775 -0.138453 0.03809 -0.0066 0.985318 -0.17073 -0.00803 -0.0461 -0.171603 -0.171603
1.48523 -0.148038 0.04074 -0.007 0.985558 -0.16934 -0.00842 -0.0492 -0.168686 -0.168686
1.5359 -0.1581 0.04353 -0.0073 0.986228 -0.165391 -0.00885 -0.0525 -0.166226 -0.166226
1.5899 -0.168672 0.04645 -0.0077 0.986537 -0.163538 -0.0093 -0.0559 -0.164113 -0.164113
1.64743 -0.179785 0.04952 -0.0081 0.986885 -0.161425 -0.00977 -0.0596 -0.161767 -0.161767
1.70865 -0.19148 0.05276 -0.0086 0.986974 -0.160879 -0.0103 -0.0633 -0.160605 -0.160605
1.77378 -0.203792 0.05616 -0.009 0.987401 -0.158237 -0.01083 -0.0674 -0.158647 -0.158647
1.84302 -0.216757 0.05975 -0.0095 0.987595 -0.157023 -0.01142 -0.0716 -0.157506 -0.157506
1.9166 -0.23042 0.06352 -0.01 0.987833 -0.155515 -0.01203 -0.0761 -0.156143 -0.156143
1.99475 -0.244825 0.0675 -0.0106 0.987893 -0.155136 -0.01269 -0.0808 -0.155153 -0.155153
2.0777 -0.260018 0.0717 -0.0112 0.988019 -0.154335 -0.01338 -0.0857 -0.154257 -0.154257
2.1657 -0.276043 0.07613 -0.0118 0.9882 -0.153169 -0.01412 -0.091 -0.15333 -0.15333
2.25905 -0.292957 0.0808 -0.0126 0.988059 -0.154078 -0.01491 -0.0964 -0.152851 -0.152851
2.35805 -0.310812 0.08573 -0.0132 0.988353 -0.152178 -0.01573 -0.1023 -0.151977 -0.151977
2.46305 -0.329665 0.09094 -0.014 0.988357 -0.152155 -0.01662 -0.1085 -0.151414 -0.151414
2.57437 -0.349583 0.09644 -0.0148 0.988429 -0.151687 -0.01756 -0.115 -0.150946 -0.150946
2.69235 -0.370622 0.10225 -0.0157 0.988416 -0.151767 -0.01855 -0.1218 -0.150563 -0.150563
2.81735 -0.392853 0.10838 -0.0165 0.988609 -0.150508 -0.0196 -0.1291 -0.1501 -0.1501
2.9498 -0.41635 0.11487 -0.0175 0.988594 -0.150608 -0.02072 -0.1368 -0.149754 -0.149754
3.09018 -0.44119 0.12173 -0.0185 0.988648 -0.15025 -0.02191 -0.145 -0.149407 -0.149407
3.2389 -0.467453 0.12897 -0.0196 0.988648 -0.150248 -0.02316 -0.1536 -0.149096 -0.149096
3.39642 -0.495225 0.13664 -0.0208 0.988611 -0.150491 -0.0245 -0.1626 -0.148995 -0.148995
3.5633 -0.5246 0.14474 -0.0219 0.988746 -0.149603 -0.02591 -0.1724 -0.148621 -0.148621
3.74008 -0.555673 0.15332 -0.0233 0.988649 -0.150245 -0.02741 -0.1825 -0.148526 -0.148526
3.92738 -0.588542 0.16239 -0.0246 0.98872 -0.149778 -0.029 -0.1935 -0.148215 -0.148215
4.12578 -0.623325 0.17198 -0.0261 0.988679 -0.150044 -0.03069 -0.2048 -0.148199 -0.148199
4.33593 -0.66014 0.18214 -0.0276 0.988713 -0.149821 -0.03249 -0.2171 -0.148006 -0.148006
4.5586 -0.69911 0.19288 -0.0293 0.988658 -0.150185 -0.03439 -0.23 -0.147878 -0.147878
4.79453 -0.740368 0.20426 -0.0311 0.988607 -0.150522 -0.03641 -0.2436 -0.147824 -0.147824
5.0445 -0.784053 0.21631 -0.0328 0.988698 -0.14992 -0.03856 -0.2582 -0.147704 -0.147704
5.3094 -0.83032 0.22906 -0.0348 0.988655 -0.150202 -0.04085 -0.2737 -0.147616 -0.147616
5.59015 -0.879337 0.24256 -0.037 0.988565 -0.150795 -0.04327 -0.29 -0.147573 -0.147573
5.88775 -0.931267 0.25689 -0.0392 0.988557 -0.150848 -0.04585 -0.3075 -0.147475 -0.147475
6.20327 -0.986308 0.27204 -0.0416 0.988509 -0.151162 -0.04861 -0.326 -0.14748 -0.14748
6.5378 -1.04464 0.28813 -0.0441 0.988489 -0.151294 -0.05153 -0.3457 -0.147431 -0.147431
6.8926 -1.10649 0.3051 -0.0469 0.98839 -0.151935 -0.05466 -0.3668 -0.147391 -0.147391
7.26905 -1.17212 0.32314 -0.0499 0.988286 -0.152613 -0.05804 -0.3892 -0.147495 -0.147495
7.66857 -1.24175 0.3422 -0.0531 0.988174 -0.153337 -0.0615 -0.4132 -0.147217 -0.147217
8.09272 -1.31567 0.3626 -0.0566 0.988035 -0.154227 -0.0654 -0.4388 -0.147415 -0.147415
8.54317 -1.3942 0.3841 -0.0605 0.987821 -0.155593 -0.0695 -0.4663 -0.147417 -0.147417
9.02185 -1.47762 0.4069 -0.065 0.98748 -0.157744 -0.0739 -0.4959 -0.147394 -0.147394
9.53065 -1.5663 0.431 -0.0702 0.986994 -0.160759 -0.0786 -0.5274 -0.147405 -0.147405
10.0714 -1.66055 0.4566 -0.0764 0.986289 -0.165029 -0.0836 -0.561 -0.147392 -0.147392
0.988263 -0.0047892 0.0007579 -0.00537 0.139751 -0.990187 -0.0053716 -0.00105 -0.981426 -0.981426
0.99017 -0.0109399 0.0021873 -0.00524 0.385211 -0.922829 -0.0055173 -0.00264 -0.902052 -0.902052
0.9937 -0.017227 0.003583 -0.00512 0.573355 -0.819307 -0.005666 -0.00432 -0.795225 -0.795225
0.998927 -0.023655 0.004969 -0.00504 0.702073 -0.712105 -0.0058 -0.0061 -0.689062 -0.689062
1.00589 -0.0302192 0.006363 -0.00505 0.783289 -0.621658 -0.005922 -0.0078 -0.604695 -0.604695
1.0146 -0.0369193 0.007782 -0.005 0.841312 -0.54055 -0.006044 -0.0096 -0.532785 -0.532785
1.0251 -0.0437618 0.009231 -0.005 0.879297 -0.476274 -0.006174 -0.0115 -0.473012 -0.473012
1.03743 -0.050759 0.010716 -0.0052 0.89967 -0.43657 -0.006316 -0.0133 -0.428974 -0.428974
1.05163 -0.0579278 0.01224 -0.0053 0.917665 -0.397355 -0.006475 -0.0152 -0.39191 -0.39191
1.0677 -0.0652878 0.013809 -0.0054 0.931323 -0.364193 -0.006653 -0.0171 -0.362588 -0.362588
1.08567 -0.0728605 0.015424 -0.0056 0.939964 -0.341273 -0.006851 -0.019 -0.339202 -0.339202
1.10563 -0.0806695 0.017092 -0.0057 0.948639 -0.316361 -0.00707 -0.0211 -0.31771 -0.31771
1.1276 -0.0887408 0.018818 -0.006 0.952743 -0.303776 -0.007314 -0.0231 -0.301854 -0.301854
1.1517 -0.0970978 0.020609 -0.0062 0.957605 -0.288085 -0.007579 -0.0253 -0.286966 -0.286966
1.17795 -0.105768 0.02246 -0.0064 0.961718 -0.274042 -0.00787 -0.0274 -0.276064 -0.276064
1.20642 -0.11478 0.02439 -0.0066 0.965283 -0.261208 -0.00819 -0.0298 -0.265006 -0.265006
1.23725 -0.124162 0.02639 -0.0069 0.967477 -0.252959 -0.00852 -0.0322 -0.255794 -0.255794
1.27048 -0.133945 0.0285 -0.0073 0.968727 -0.24813 -0.0089 -0.0346 -0.249116 -0.249116
1.30625 -0.144162 0.03068 -0.0076 0.970661 -0.240451 -0.0093 -0.0373 -0.241923 -0.241923
1.34465 -0.154847 0.03297 -0.008 0.971801 -0.235802 -0.00973 -0.0399 -0.236917 -0.236917
1.3858 -0.16603 0.03536 -0.0084 0.972924 -0.231125 -0.01019 -0.0428 -0.23161 -0.23161
1.42985 -0.177748 0.03786 -0.0088 0.974034 -0.2264 -0.01068 -0.0457 -0.227566 -0.227566
1.4769 -0.19004 0.04049 -0.0092 0.975145 -0.221569 -0.01121 -0.0489 -0.223447 -0.223447
1.52713 -0.202945 0.04325 -0.0098 0.975277 -0.220988 -0.01177 -0.0521 -0.220359 -0.220359
1.58068 -0.216503 0.04615 -0.0103 0.975988 -0.217826 -0.01237 -0.0555 -0.217545 -0.217545
1.6377 -0.230758 0.0492 -0.0108 0.976744 -0.214407 -0.01301 -0.0591 -0.214988 -0.214988
1.6984 -0.245758 0.05241 -0.0114 0.977151 -0.212546 -0.0137 -0.0629 -0.212817 -0.212817
1.76298 -0.26155 0.05578 -0.012 0.977633 -0.210319 -0.01442 -0.0669 -0.210706 -0.210706
1.83162 -0.27818 0.05934 -0.0127 0.977855 -0.209281 -0.01519 -0.0711 -0.208928 -0.208928
1.90457 -0.295705 0.06308 -0.0134 0.978173 -0.207792 -0.01601 -0.0755 -0.20744 -0.20744
1.98205 -0.314183 0.06704 -0.0141 0.97859 -0.205819 -0.01689 -0.0802 -0.206078 -0.206078
2.06428 -0.33367 0.07119 -0.0149 0.978791 -0.20486 -0.01781 -0.0851 -0.204845 -0.204845
2.1515 -0.354227 0.07559 -0.0158 0.978846 -0.204601 -0.01879 -0.0902 -0.203937 -0.203937
2.24405 -0.375923 0.08022 -0.0166 0.979254 -0.202638 -0.01984 -0.0958 -0.202795 -0.202795
2.3422 -0.398828 0.08511 -0.0176 0.979281 -0.202507 -0.02094 -0.1015 -0.20205 -0.20205
2.44627 -0.423015 0.09028 -0.0186 0.979429 -0.201788 -0.02212 -0.1077 -0.201186 -0.201186
2.55662 -0.448565 0.09574 -0.0197 0.97948 -0.201543 -0.02337 -0.1141 -0.200655 -0.200655
2.67358 -0.475552 0.1015 -0.0208 0.979642 -0.200754 -0.02468 -0.121 -0.199852 -0.199852
2.7975 -0.50407 0.10759 -0.0221 0.979548 -0.201208 -0.02609 -0.1281 -0.199572 -0.199572
2.9288 -0.534215 0.11403 -0.0233 0.979756 -0.200196 -0.02758 -0.1358 -0.19903 -0.19903
3.06795 -0.566078 0.12083 -0.0247 0.979739 -0.200278 -0.02915 -0.1439 -0.198539 -0.198539
3.21537 -0.599765 0.12802 -0.0261 0.979844 -0.199765 -0.03083 -0.1524 -0.19828 -0.19828
3.37153 -0.63539 0.13562 -0.0276 0.979914 -0.199422 -0.0326 -0.1615 -0.197867 -0.197867
3.53693 -0.67307 0.14366 -0.0293 0.979829 -0.19984 -0.03449 -0.171 -0.197714 -0.197714
3.71215 -0.71293 0.15216 -0.031 0.979871 -0.199632 -0.03648 -0.1812 -0.197364 -0.197364
3.8978 -0.755095 0.16116 -0.0328 0.979911 -0.199436 -0.03859 -0.192 -0.197049 -0.197049
4.09445 -0.799713 0.17068 -0.0348 0.979841 -0.19978 -0.04085 -0.2033 -0.196997 -0.196997
4.30277 -0.846935 0.18075 -0.0368 0.979897 -0.199503 -0.04323 -0.2154 -0.196773 -0.196773
4.52347 -0.896927 0.19141 -0.0389 0.979967 -0.199157 -0.04577 -0.2282 -0.196653 -0.196653
4.7573 -0.949855 0.20272 -0.0412 0.979966 -0.199164 -0.04846 -0.2419 -0.196428 -0.196428
5.00507 -1.00587 0.21466 -0.0438 0.979811 -0.199924 -0.05131 -0.2562 -0.196374 -0.196374
5.2676 -1.06521 0.22725 -0.0463 0.97987 -0.199639 -0.05435 -0.2715 -0.19629 -0.19629
5.5458 -1.12807 0.2407 -0.0491 0.979822 -0.199872 -0.0576 -0.2878 -0.196247 -0.196247
5.8407 -1.19467 0.2548 -0.0521 0.979729 -0.200329 -0.061 -0.3051 -0.196054 -0.196054
6.15335 -1.26525 0.2699 -0.0553 0.979648 -0.200721 -0.0647 -0.3235 -0.196116 -0.196116
6.4848 -1.34003 0.2857 -0.0587 0.979539 -0.201256 -0.0685 -0.3429 -0.195896 -0.195896
6.83627 -1.41932 0.3026 -0.0623 0.979457 -0.201653 -0.0727 -0.3638 -0.195961 -0.195961
7.20915 -1.50345 0.3205 -0.0662 0.979327 -0.202282 -0.0771 -0.386 -0.195872 -0.195872
7.60478 -1.5927 0.3395 -0.0704 0.97917 -0.203044 -0.0819 -0.4097 -0.196024 -0.196024
8.02463 -1.6874 0.3595 -0.0751 0.978869 -0.204487 -0.0869 -0.4349 -0.195943 -0.195943
8.4703 -1.78792 0.3807 -0.0802 0.978523 -0.20614 -0.0923 -0.4618 -0.195994 -0.195994
8.94355 -1.89467 0.4032 -0.0858 0.9781 -0.208137 -0.098 -0.4907 -0.195847 -0.195847
9.44607 -2.00805 0.4271 -0.0922 0.977483 -0.211014 -0.1042 -0.5212 -0.196044 -0.196044
9.97942 -2.1284 0.4523 -0.0995 0.976647 -0.214849 -0.1106 -0.5534 -0.19598 -0.19598
0.982363 -0.00633395 0.0009158 -0.00655 0.13847 -0.990367 -0.006801 -0.00118 -0.98528 -0.98528
0.984382 -0.0138875 0.002318 -0.00644 0.338668 -0.940906 -0.006913 -0.00276 -0.928717 -0.928717
0.988 -0.0215598 0.003702 -0.00635 0.503651 -0.863907 -0.007052 -0.0044 -0.848404 -0.848404
0.993267 -0.0293723 0.005077 -0.00629 0.628084 -0.778146 -0.007194 -0.00609 -0.763241 -0.763241
1.00023 -0.0373358 0.00646 -0.00626 0.718136 -0.695903 -0.007341 -0.00785 -0.683031 -0.683031
1.00893 -0.0454605 0.007861 -0.0063 0.780326 -0.625373 -0.007493 -0.0096 -0.615287 -0.615287
1.01935 -0.0537595 0.009291 -0.0064 0.823527 -0.567277 -0.007659 -0.0113 -0.561057 -0.561057
1.03155 -0.06225 0.010753 -0.0064 0.859314 -0.511449 -0.00784 -0.0132 -0.510659 -0.510659
1.0456 -0.0709532 0.012255 -0.0066 0.880436 -0.474164 -0.008044 -0.0151 -0.470163 -0.470163
1.06153 -0.0798932 0.013798 -0.0068 0.896987 -0.442058 -0.008268 -0.0169 -0.439458 -0.439458
1.07933 -0.089095 0.015391 -0.0069 0.912496 -0.409085 -0.008519 -0.0189 -0.410926 -0.410926
1.09905 -0.0985885 0.017031 -0.0072 0.921072 -0.389391 -0.008796 -0.0208 -0.38949 -0.38949
1.1208 -0.108406 0.018735 -0.0074 0.930077 -0.367364 -0.009105 -0.0229 -0.369466 -0.369466
1.14465 -0.118572 0.0205 -0.0076 0.937638 -0.347612 -0.00943 -0.0251 -0.351696 -0.351696
1.17063 -0.12912 0.02233 -0.008 0.941408 -0.337271 -0.0098 -0.0272 -0.338964 -0.338964
1.1988 -0.140088 0.02423 -0.0083 0.946035 -0.324065 -0.01019 -0.0295 -0.326494 -0.326494
1.22925 -0.15151 0.02622 -0.0087 0.949117 -0.314924 -0.01063 -0.0318 -0.317033 -0.317033
1.2621 -0.163422 0.02828 -0.0091 0.95193 -0.306314 -0.01108 -0.0343 -0.307392 -0.307392
1.29747 -0.175865 0.03045 -0.0095 0.954619 -0.297829 -0.01159 -0.0369 -0.299659 -0.299659
1.33545 -0.188875 0.03271 -0.01 0.956308 -0.29236 -0.01212 -0.0395 -0.293337 -0.293337
1.37615 -0.20249 0.03507 -0.0104 0.958732 -0.284312 -0.01269 -0.0424 -0.286726 -0.286726
1.4197 -0.216762 0.03755 -0.011 0.95967 -0.281128 -0.01331 -0.0453 -0.281903 -0.281903
1.46623 -0.231735 0.04016 -0.0116 0.960726 -0.2775 -0.01397 -0.0483 -0.277846 -0.277846
1.51587 -0.247453 0.04288 -0.0121 0.962417 -0.271577 -0.01467 -0.0516 -0.273465 -0.273465
1.56882 -0.26397 0.04575 -0.0128 0.963019 -0.269435 -0.01542 -0.055 -0.269955 -0.269955
1.62522 -0.281338 0.04877 -0.0135 0.963758 -0.266777 -0.01622 -0.0585 -0.267185 -0.267185
1.68525 -0.29961 0.05194 -0.0142 0.964601 -0.263714 -0.01707 -0.0623 -0.264257 -0.264257
1.7491 -0.318847 0.05528 -0.015 0.965101 -0.261876 -0.01798 -0.0662 -0.262106 -0.262106
1.81697 -0.339107 0.05879 -0.0158 0.965731 -0.259543 -0.01893 -0.0704 -0.259668 -0.259668
1.88912 -0.36046 0.0625 -0.0167 0.966107 -0.258144 -0.01997 -0.0748 -0.257944 -0.257944
1.96575 -0.382973 0.0664 -0.0176 0.96662 -0.256213 -0.02104 -0.0794 -0.256147 -0.256147
2.04703 -0.406715 0.07053 -0.0186 0.966941 -0.254999 -0.02221 -0.0842 -0.255053 -0.255053
2.13328 -0.431762 0.07487 -0.0197 0.967083 -0.254462 -0.02342 -0.0894 -0.253417 -0.253417
2.2248 -0.458195 0.07946 -0.0208 0.967405 -0.253235 -0.02473 -0.0948 -0.252418 -0.252418