TITLE = NACA GRID 
FILETYPE = GRID 
VARIABLES = "X", "Y", "nSx", "nSy", "nWx", "nWy", "dsSx", "dsSy", "dsWx", "dsWy" 
ZONE I=129 , J=65, F=POINT 
1 0 0.142207 -0.989837 0 1 8.62e-005 -0.0006 0 0.00035
0.9994 -8.62e-005 0.14111 -0.989994 -0.974115 -0.226055 0.00025799 -0.00181 -0.0010773 -0.00025
0.99759 -0.00034419 0.141201 -0.989981 -0.968923 -0.247363 0.00042789 -0.003 -0.00246771 -0.00063
0.99459 -0.00077208 0.140271 -0.990113 -0.976258 -0.216613 0.00059502 -0.0042 -0.00392102 -0.00087
0.99039 -0.0013671 0.139751 -0.990187 -0.981426 -0.191842 0.0007579 -0.00537 -0.0053716 -0.00105
0.98502 -0.002125 0.13847 -0.990367 -0.98528 -0.17095 0.0009158 -0.00655 -0.006801 -0.00118
0.97847 -0.0030408 0.137348 -0.990523 -0.98786 -0.155347 0.0010677 -0.0077 -0.0082032 -0.00129
0.97077 -0.0041085 0.136039 -0.990703 -0.989625 -0.143671 0.0012125 -0.00883 -0.0095745 -0.00139
0.96194 -0.005321 0.134437 -0.990922 -0.991049 -0.133496 0.0013499 -0.00995 -0.010913 -0.00147
0.95199 -0.0066709 0.132873 -0.991133 -0.992149 -0.125063 0.0014787 -0.01103 -0.0122171 -0.00154
0.94096 -0.0081496 0.130994 -0.991383 -0.993121 -0.117094 0.0015988 -0.0121 -0.0134854 -0.00159
0.92886 -0.0097484 0.129116 -0.99163 -0.993846 -0.110768 0.0017096 -0.01313 -0.0147146 -0.00164
0.91573 -0.011458 0.127058 -0.991895 -0.994466 -0.105056 0.00181 -0.01413 -0.015903 -0.00168
0.9016 -0.013268 0.125054 -0.99215 -0.995065 -0.0992263 0.001902 -0.01509 -0.017048 -0.0017
0.88651 -0.01517 0.122709 -0.992443 -0.99559 -0.0938097 0.001982 -0.01603 -0.018148 -0.00171
0.87048 -0.017152 0.120324 -0.992735 -0.996012 -0.0892168 0.002052 -0.01693 -0.019202 -0.00172
0.85355 -0.019204 0.118021 -0.993011 -0.996397 -0.0848165 0.002112 -0.01777 -0.020206 -0.00172
0.83578 -0.021316 0.115582 -0.993298 -0.996788 -0.0800898 0.002162 -0.01858 -0.021158 -0.0017
0.8172 -0.023478 0.113018 -0.993593 -0.997146 -0.0755002 0.002201 -0.01935 -0.022056 -0.00167
0.79785 -0.025679 0.110334 -0.993895 -0.997476 -0.0710056 0.002228 -0.02007 -0.022898 -0.00163
0.77778 -0.027907 0.107668 -0.994187 -0.997754 -0.066986 0.002245 -0.02073 -0.023683 -0.00159
0.75705 -0.030152 0.104898 -0.994483 -0.998041 -0.0625616 0.002252 -0.02135 -0.024408 -0.00153
0.7357 -0.032404 0.10193 -0.994792 -0.998332 -0.0577416 0.002246 -0.02192 -0.02507 -0.00145
0.71378 -0.03465 0.098889 -0.995098 -0.998579 -0.0532959 0.00223 -0.02244 -0.025669 -0.00137
0.69134 -0.03688 0.0957157 -0.995409 -0.998809 -0.0487912 0.002202 -0.0229 -0.026203 -0.00128
0.66844 -0.039082 0.0923928 -0.995723 -0.999023 -0.0442012 0.002162 -0.0233 -0.02667 -0.00118
0.64514 -0.041244 0.0887812 -0.996051 -0.999234 -0.0391306 0.002108 -0.02365 -0.027068 -0.00106
0.62149 -0.043352 0.0850706 -0.996375 -0.999412 -0.0342864 0.002044 -0.02394 -0.0274 -0.00094
0.59755 -0.045396 0.0810394 -0.996711 -0.999582 -0.0289095 0.001966 -0.02418 -0.027661 -0.0008
0.57337 -0.047362 0.0767028 -0.997054 -0.999728 -0.0233321 0.001874 -0.02436 -0.027851 -0.00065
0.54901 -0.049236 0.0721157 -0.997396 -0.99984 -0.0178722 0.00177 -0.02448 -0.027972 -0.0005
0.52453 -0.051006 0.0671129 -0.997745 -0.999926 -0.0121329 0.00165 -0.02453 -0.028021 -0.00034
0.5 -0.052656 0.0618058 -0.998088 -0.999984 -0.00571378 0.001519 -0.02453 -0.028002 -0.00016
0.47547 -0.054175 0.0559579 -0.998433 -1 0.000716538 0.001372 -0.02448 -0.027912 2e-005
0.45099 -0.055547 0.0497331 -0.998763 -0.999971 0.00756653 0.001213 -0.02436 -0.027753 0.00021
0.42663 -0.05676 0.0429298 -0.999078 -0.999894 0.0145302 0.001039 -0.02418 -0.027526 0.0004
0.40245 -0.057799 0.0356498 -0.999364 -0.999749 0.0223929 0.000854 -0.02394 -0.027234 0.00061
0.37851 -0.058653 0.0277694 -0.999614 -0.999535 0.0304974 0.000657 -0.02365 -0.026875 0.00082
0.35486 -0.05931 0.0192239 -0.999815 -0.999228 0.0392847 0.000448 -0.0233 -0.026453 0.00104
0.33156 -0.059758 0.0099995 -0.99995 -0.998825 0.0484624 0.000229 -0.0229 -0.025969 0.00126
0.30866 -0.059987 8.91266e-005 -1 -0.99831 0.0581121 2e-006 -0.02244 -0.025425 0.00148
0.28622 -0.059989 -0.010629 -0.999944 -0.997635 0.0687276 -0.000233 -0.02192 -0.024822 0.00171
0.2643 -0.059756 -0.0221959 -0.999754 -0.996825 0.0796206 -0.000474 -0.02135 -0.024163 0.00193
0.24295 -0.059282 -0.0345984 -0.999401 -0.995746 0.0921397 -0.000718 -0.02074 -0.023451 0.00217
0.22221 -0.058564 -0.0480998 -0.998843 -0.994496 0.104771 -0.000966 -0.02006 -0.022686 0.00239
0.20215 -0.057598 -0.0626159 -0.998038 -0.992902 0.118938 -0.001214 -0.01935 -0.021872 0.00262
0.1828 -0.056384 -0.0783376 -0.996927 -0.990988 0.133949 -0.00146 -0.01858 -0.021011 0.00284
0.16422 -0.054924 -0.0954541 -0.995434 -0.988613 0.150483 -0.001704 -0.01777 -0.020103 0.00306
0.14645 -0.05322 -0.11396 -0.993485 -0.985651 0.168795 -0.001942 -0.01693 -0.019153 0.00328
0.12952 -0.051278 -0.13439 -0.990928 -0.98213 0.188205 -0.002174 -0.01603 -0.01816 0.00348
0.11349 -0.049104 -0.156967 -0.987604 -0.977689 0.210059 -0.002399 -0.015094 -0.017128 0.00368
0.098396 -0.046705 -0.181897 -0.983318 -0.972059 0.234737 -0.002614 -0.014131 -0.016059 0.003878
0.084265 -0.044091 -0.20986 -0.977732 -0.965036 0.262118 -0.002818 -0.013129 -0.014955 0.004062
0.071136 -0.041273 -0.241611 -0.970373 -0.956045 0.29322 -0.003012 -0.012097 -0.013818 0.004238
0.059039 -0.038261 -0.278054 -0.960565 -0.944466 0.32861 -0.003194 -0.011034 -0.012649 0.004401
0.048005 -0.035067 -0.32034 -0.947303 -0.929225 0.369515 -0.003363 -0.009945 -0.011452 0.004554
0.03806 -0.031704 -0.370411 -0.928868 -0.908805 0.417221 -0.003522 -0.008832 -0.010229 0.004696
0.029228 -0.028182 -0.430056 -0.902802 -0.880962 0.473187 -0.003667 -0.007698 -0.008983 0.004825
0.02153 -0.024515 -0.502244 -0.864726 -0.842184 0.53919 -0.003802 -0.006546 -0.007716 0.00494
0.014984 -0.020713 -0.589808 -0.807543 -0.787044 0.616897 -0.003927 -0.0053767 -0.006432 0.0050415
0.0096073 -0.016786 -0.693801 -0.720166 -0.707664 0.706549 -0.004042 -0.0041956 -0.005137 0.0051289
0.0054117 -0.012744 -0.809974 -0.586465 -0.593518 0.80482 -0.004149 -0.0030041 -0.003835 0.00520032
0.0024076 -0.008595 -0.920397 -0.390986 -0.434519 0.900663 -0.0042498 -0.00180532 -0.002535 0.0052545
0.00060228 -0.0043452 -0.99053 -0.137296 -0.229752 0.973249 -0.0043452 -0.00060228 -0.0012486 0.00528918
0 0 -0.99053 0.137296 2.22591e-005 1 -0.0043452 0.00060228 1.18e-007 0.0053012
0.00060228 0.0043452 -0.920397 0.390986 0.229795 0.973239 -0.0042498 0.00180532 0.0012488 0.00528898
0.0024076 0.008595 -0.809974 0.586465 0.434539 0.900653 -0.004149 0.0030041 0.002535 0.0052542
0.0054117 0.012744 -0.693801 0.720166 0.593552 0.804796 -0.004042 0.0041956 0.003835 0.00519987
0.0096073 0.016786 -0.589808 0.807543 0.707706 0.706507 -0.003927 0.0053767 0.005137 0.0051283
0.014984 0.020713 -0.502244 0.864726 0.787085 0.616844 -0.003802 0.006546 0.006432 0.0050408
0.02153 0.024515 -0.430056 0.902802 0.842202 0.539162 -0.003667 0.007698 0.007715 0.004939
0.029228 0.028182 -0.370411 0.928868 0.880981 0.473152 -0.003522 0.008832 0.008982 0.004824
0.03806 0.031704 -0.32034 0.947303 0.908808 0.417215 -0.003363 0.009945 0.010227 0.004695
0.048005 0.035067 -0.278054 0.960565 0.929241 0.369473 -0.003194 0.011034 0.011451 0.004553
0.059039 0.038261 -0.241611 0.970373 0.944473 0.32859 -0.003012 0.012097 0.012647 0.0044
0.071136 0.041273 -0.20986 0.977732 0.956066 0.293152 -0.002818 0.013129 0.013815 0.004236
0.084265 0.044091 -0.181897 0.983318 0.965043 0.262091 -0.002614 0.014131 0.014953 0.004061
0.098396 0.046705 -0.156967 0.987604 0.972076 0.234664 -0.002399 0.015094 0.016056 0.003876
0.11349 0.049104 -0.13439 0.990928 0.977681 0.210094 -0.002174 0.01603 0.017125 0.00368
0.12952 0.051278 -0.11396 0.993485 0.982122 0.188245 -0.001942 0.01693 0.018156 0.00348
0.14645 0.05322 -0.0954541 0.995434 0.985644 0.168838 -0.001704 0.01777 0.019148 0.00328
0.16422 0.054924 -0.0783376 0.996927 0.988607 0.150519 -0.00146 0.01858 0.020098 0.00306
0.1828 0.056384 -0.0626159 0.998038 0.990983 0.133987 -0.001214 0.01935 0.021005 0.00284
0.20215 0.057598 -0.0480998 0.998843 0.992898 0.11897 -0.000966 0.02006 0.021866 0.00262
0.22221 0.058564 -0.0345984 0.999401 0.994493 0.104799 -0.000718 0.02074 0.02268 0.00239
0.24295 0.059282 -0.0221959 0.999754 0.995782 0.0917459 -0.000474 0.02135 0.023444 0.00216
0.2643 0.059756 -0.010629 0.999944 0.996823 0.0796435 -0.000233 0.02192 0.024156 0.00193
0.28622 0.059989 8.91266e-005 1 0.997661 0.0683495 2e-006 0.02244 0.024814 0.0017
0.30866 0.059987 0.0099995 0.99995 0.998309 0.0581326 0.000229 0.0229 0.025416 0.00148
0.33156 0.059758 0.0192239 0.999815 0.998824 0.0484791 0.000448 0.0233 0.02596 0.00126
0.35486 0.05931 0.0277694 0.999614 0.999228 0.039298 0.000657 0.02365 0.026444 0.00104
0.37851 0.058653 0.0356498 0.999364 0.999535 0.0305076 0.000854 0.02394 0.026866 0.00082
0.40245 0.057799 0.0429298 0.999078 0.999749 0.0224011 0.001039 0.02418 0.027224 0.00061
0.42663 0.05676 0.0497331 0.998763 0.999894 0.0145355 0.001213 0.02436 0.027516 0.0004
0.45099 0.055547 0.0559579 0.998433 0.999971 0.00756926 0.001372 0.02448 0.027743 0.00021
0.47547 0.054175 0.0618058 0.998088 1 0.00071682 0.001519 0.02453 0.027901 2e-005
0.5 0.052656 0.0671129 0.997745 0.999984 -0.00571583 0.00165 0.02453 0.027992 -0.00016
0.52453 0.051006 0.0721157 0.997396 0.999926 -0.0121372 0.00177 0.02448 0.028011 -0.00034
0.54901 0.049236 0.0767028 0.997054 0.99984 -0.0178792 0.001874 0.02436 0.027961 -0.0005
0.57337 0.047362 0.0810394 0.996711 0.999728 -0.0233405 0.001966 0.02418 0.027841 -0.00065
0.59755 0.045396 0.0850706 0.996375 0.999582 -0.028921 0.002044 0.02394 0.02765 -0.0008
0.62149 0.043352 0.0887812 0.996051 0.999412 -0.0342989 0.002108 0.02365 0.02739 -0.00094
0.64514 0.041244 0.0923928 0.995723 0.999234 -0.0391451 0.002162 0.0233 0.027058 -0.00106
0.66844 0.039082 0.0957157 0.995409 0.999022 -0.0442178 0.002202 0.0229 0.02666 -0.00118
0.69134 0.03688 0.098889 0.995098 0.998808 -0.0488098 0.00223 0.02244 0.026193 -0.00128
0.71378 0.03465 0.10193 0.994792 0.998578 -0.0533146 0.002246 0.02192 0.02566 -0.00137
0.7357 0.032404 0.104898 0.994483 0.99833 -0.0577622 0.002252 0.02135 0.025061 -0.00145
0.75705 0.030152 0.107668 0.994187 0.99804 -0.0625846 0.002245 0.02073 0.024399 -0.00153
0.77778 0.027907 0.110334 0.993895 0.997752 -0.0670085 0.002228 0.02007 0.023675 -0.00159
0.79785 0.025679 0.113018 0.993593 0.997474 -0.0710303 0.002201 0.01935 0.02289 -0.00163
0.8172 0.023478 0.115582 0.993298 0.997144 -0.0755241 0.002162 0.01858 0.022049 -0.00167
0.83578 0.021316 0.118021 0.993011 0.996786 -0.0801123 0.002112 0.01777 0.021152 -0.0017
0.85355 0.019204 0.120324 0.992735 0.996394 -0.0848415 0.002052 0.01693 0.0202 -0.00172
0.87048 0.017152 0.122709 0.992443 0.99601 -0.0892445 0.001982 0.01603 0.019196 -0.00172
0.88651 0.01517 0.125054 0.99215 0.995588 -0.0938354 0.001902 0.01509 0.018143 -0.00171
0.9016 0.013268 0.127058 0.991895 0.995063 -0.0992494 0.00181 0.01413 0.017044 -0.0017
0.91573 0.011458 0.129116 0.99163 0.994463 -0.105089 0.0017096 0.01313 0.015898 -0.00168
0.92886 0.0097484 0.130994 0.991383 0.993843 -0.110798 0.0015988 0.0121 0.0147106 -0.00164
0.94096 0.0081496 0.132873 0.991133 0.993118 -0.11712 0.0014787 0.01103 0.0134824 -0.00159
0.95199 0.0066709 0.134437 0.990922 0.992146 -0.125083 0.0013499 0.00995 0.0122151 -0.00154
0.96194 0.005321 0.136039 0.990703 0.991046 -0.13352 0.0012125 0.00883 0.010911 -0.00147
0.97077 0.0041085 0.137348 0.990523 0.989621 -0.143701 0.0010677 0.0077 0.0095725 -0.00139
0.97847 0.0030408 0.13847 0.990367 0.987854 -0.155384 0.0009158 0.00655 0.0082012 -0.00129
0.98502 0.002125 0.139751 0.990187 0.985276 -0.170972 0.0007579 0.00537 0.0068001 -0.00118
0.99039 0.0013671 0.140271 0.990113 0.981422 -0.191862 0.00059502 0.0042 0.005371 -0.00105
0.99459 0.00077208 0.141201 0.989981 0.976254 -0.216629 0.00042789 0.003 0.00392072 -0.00087
0.99759 0.00034419 0.14111 0.989994 0.968918 -0.247382 0.00025799 0.00181 0.00246751 -0.00063
0.9994 8.62e-005 0.142207 0.989837 0.97411 -0.226075 8.62e-005 0.0006 0.0010772 -0.00025
1 0 0.142207 -0.989837 0 1 8.62e-005 -0.0006 0 0.00035
0.99965 0 1 0 0 -1 0.0011635 0 0 -0.00215
0.99965 -0.0011635 0.755375 -0.655293 -0.548075 -0.836429 0.0016484 -0.00143 -0.0014088 -0.00215
0.99822 -0.0028119 0.56321 -0.826313 -0.769585 -0.638544 0.0018812 -0.00276 -0.0027479 -0.00228
0.99546 -0.0046931 0.453517 -0.891248 -0.855933 -0.517086 0.0020456 -0.00402 -0.0041217 -0.00249
0.99144 -0.0067387 0.385211 -0.922829 -0.902052 -0.431627 0.0021873 -0.00524 -0.0055173 -0.00264
0.9862 -0.008926 0.338668 -0.940906 -0.928717 -0.370788 0.002318 -0.00644 -0.006913 -0.00276
0.97976 -0.011244 0.305571 -0.952169 -0.94576 -0.324866 0.002439 -0.0076 -0.008297 -0.00285
0.97216 -0.013683 0.27989 -0.960032 -0.957224 -0.289347 0.002551 -0.00875 -0.00966 -0.00292
0.96341 -0.016234 0.259427 -0.965763 -0.965405 -0.260754 0.002654 -0.00988 -0.010996 -0.00297
0.95353 -0.018888 0.242702 -0.970101 -0.971343 -0.237683 0.002747 -0.01098 -0.012301 -0.00301
0.94255 -0.021635 0.228481 -0.973548 -0.97582 -0.218575 0.002828 -0.01205 -0.013572 -0.00304
0.9305 -0.024463 0.216156 -0.976359 -0.979565 -0.201126 0.002898 -0.01309 -0.014806 -0.00304
0.91741 -0.027361 0.204979 -0.978766 -0.982537 -0.186068 0.002955 -0.01411 -0.016 -0.00303
0.9033 -0.030316 0.195241 -0.980755 -0.984854 -0.173386 0.003002 -0.01508 -0.017154 -0.00302
0.88822 -0.033318 0.186199 -0.982512 -0.986946 -0.16105 0.003036 -0.01602 -0.018262 -0.00298
0.8722 -0.036354 0.177637 -0.984096 -0.988773 -0.149426 0.003056 -0.01693 -0.019322 -0.00292
0.85527 -0.03941 0.169733 -0.98549 -0.990253 -0.13928 0.003064 -0.01779 -0.020334 -0.00286
0.83748 -0.042474 0.162249 -0.98675 -0.991526 -0.129906 0.00306 -0.01861 -0.021295 -0.00279
0.81887 -0.045534 0.155039 -0.987908 -0.992686 -0.120727 0.003043 -0.01939 -0.022201 -0.0027
0.79948 -0.048577 0.148172 -0.988962 -0.993699 -0.112083 0.003013 -0.02011 -0.023051 -0.0026
0.77937 -0.05159 0.141421 -0.989949 -0.994634 -0.103456 0.00297 -0.02079 -0.023843 -0.00248
0.75858 -0.05456 0.134738 -0.990881 -0.995497 -0.09479 0.002914 -0.02143 -0.024575 -0.00234
0.73715 -0.057474 0.12825 -0.991742 -0.99619 -0.0872086 0.002845 -0.022 -0.025245 -0.00221
0.71515 -0.060319 0.121768 -0.992559 -0.996871 -0.0790494 0.002764 -0.02253 -0.025852 -0.00205
0.69262 -0.063083 0.11527 -0.993334 -0.997473 -0.071051 0.002669 -0.023 -0.026393 -0.00188
0.66962 -0.065752 0.108661 -0.994079 -0.998004 -0.063146 0.00256 -0.02342 -0.026868 -0.0017
0.6462 -0.068312 0.102114 -0.994773 -0.998451 -0.0556403 0.00244 -0.02377 -0.027276 -0.00152
0.62243 -0.070752 0.095287 -0.99545 -0.998877 -0.0473864 0.002305 -0.02408 -0.027614 -0.00131
0.59835 -0.073057 0.088269 -0.996097 -0.999237 -0.0390621 0.002156 -0.02433 -0.027883 -0.00109
0.57402 -0.075213 0.0811271 -0.996704 -0.99952 -0.0309714 0.001995 -0.02451 -0.028077 -0.00087
0.54951 -0.077208 0.0736227 -0.997286 -0.999743 -0.0226795 0.001819 -0.02464 -0.028212 -0.00064
0.52487 -0.079027 0.0658623 -0.997829 -0.9999 -0.0141514 0.001631 -0.02471 -0.028263 -0.0004
0.50016 -0.080658 0.0577344 -0.998332 -0.999986 -0.00530928 0.001429 -0.02471 -0.028252 -0.00015
0.47545 -0.082087 0.0491097 -0.998793 -0.999991 0.00425936 0.001213 -0.02467 -0.028173 0.00012
0.45078 -0.0833 0.0401306 -0.999194 -0.999908 0.0135605 0.000986 -0.02455 -0.02802 0.00038
0.42623 -0.084286 0.030613 -0.999531 -0.999718 0.0237309 0.000747 -0.02439 -0.027804 0.00066
0.40184 -0.085033 0.0204926 -0.99979 -0.999429 0.0337903 0.000495 -0.02415 -0.027507 0.00093
0.37769 -0.085528 0.00984452 -0.999952 -0.998993 0.0448705 0.000235 -0.02387 -0.027162 0.00122
0.35382 -0.085763 -0.00153061 -0.999999 -0.99843 0.0560139 -3.6e-005 -0.02352 -0.026737 0.0015
0.3303 -0.085727 -0.0136233 -0.999907 -0.99766 0.0683771 -0.000315 -0.02312 -0.026263 0.0018
0.30718 -0.085412 -0.0265015 -0.999649 -0.996714 0.080999 -0.000601 -0.02267 -0.025718 0.00209
0.28451 -0.084811 -0.0402564 -0.999189 -0.995578 0.0939337 -0.000892 -0.02214 -0.025119 0.00237
0.26237 -0.083919 -0.0548501 -0.998495 -0.994095 0.108509 -0.001186 -0.02159 -0.024461 0.00267
0.24078 -0.082733 -0.0705774 -0.997506 -0.992321 0.12369 -0.001483 -0.02096 -0.023747 0.00296
0.21982 -0.08125 -0.0873923 -0.996174 -0.990198 0.139671 -0.00178 -0.02029 -0.02297 0.00324
0.19953 -0.07947 -0.105439 -0.994426 -0.987549 0.157313 -0.002075 -0.01957 -0.02216 0.00353
0.17996 -0.077395 -0.12497 -0.992161 -0.984359 0.176175 -0.002368 -0.0188 -0.021288 0.00381
0.16116 -0.075027 -0.145947 -0.989292 -0.980531 0.196366 -0.002654 -0.01799 -0.020373 0.00408
0.14317 -0.072373 -0.168876 -0.985637 -0.975909 0.218176 -0.002935 -0.01713 -0.019413 0.00434
0.12604 -0.069438 -0.193791 -0.981043 -0.970177 0.242399 -0.003206 -0.01623 -0.018411 0.0046
0.10981 -0.066232 -0.221169 -0.975235 -0.963291 0.268459 -0.003468 -0.015292 -0.017367 0.00484
0.094518 -0.062764 -0.251387 -0.967887 -0.954681 0.297631 -0.003718 -0.014315 -0.016285 0.005077
0.080203 -0.059046 -0.284934 -0.958547 -0.944022 0.329882 -0.003955 -0.013305 -0.015167 0.0053
0.066898 -0.055091 -0.322775 -0.946476 -0.930672 0.365854 -0.004181 -0.01226 -0.014014 0.005509
0.054638 -0.05091 -0.365372 -0.930862 -0.913723 0.406337 -0.004391 -0.011187 -0.012831 0.005706
0.043451 -0.046519 -0.413878 -0.910332 -0.892004 0.452028 -0.004586 -0.010087 -0.011619 0.005888
0.033364 -0.041933 -0.469729 -0.882811 -0.86383 0.503783 -0.004768 -0.008961 -0.010379 0.006053
0.024403 -0.037165 -0.533952 -0.845515 -0.826781 0.562523 -0.004934 -0.007813 -0.009117 0.006203
0.01659 -0.032231 -0.607647 -0.794207 -0.777566 0.628801 -0.005086 -0.0066475 -0.007835 0.006336
0.0099425 -0.027145 -0.69091 -0.722941 -0.711854 0.702327 -0.005222 -0.0054641 -0.006538 0.0064505
0.0044784 -0.021923 -0.781452 -0.623965 -0.624049 0.781386 -0.005344 -0.00426702 -0.005228 0.0065461
0.00021138 -0.016579 -0.872039 -0.489436 -0.508759 0.860909 -0.005449 -0.00305828 -0.003913 0.00662148
-0.0028469 -0.01113 -0.948961 -0.315395 -0.362788 0.931872 -0.0055362 -0.00184 -0.002599 0.0066759
-0.0046869 -0.0055938 -0.994024 -0.109159 -0.189212 0.981936 -0.00559392 -0.0006143 -0.0012926 0.0067081
-0.0053012 1.18e-007 -0.99402 0.109195 2.55998e-005 1 -0.00559388 0.0006145 1.72e-007 0.0067188
-0.0046867 0.005594 -0.948952 0.31542 0.189263 0.981926 -0.005536 0.0018401 0.001293 0.0067083
-0.0028466 0.01113 -0.872029 0.489455 0.362807 0.931864 -0.005449 0.00305843 0.002599 0.0066755
0.00021183 0.016579 -0.781441 0.623979 0.508887 0.860834 -0.005344 0.00426717 0.003914 0.00662093
0.004479 0.021923 -0.690903 0.722948 0.624095 0.781348 -0.005222 0.0054642 0.005228 0.0065453
0.0099432 0.027145 -0.607555 0.794278 0.711855 0.702327 -0.005085 0.0066478 0.006537 0.0064495
0.016591 0.03223 -0.533952 0.845515 0.777615 0.628741 -0.004934 0.007813 0.007835 0.006335
0.024404 0.037164 -0.469652 0.882852 0.826795 0.562504 -0.004767 0.008961 0.009116 0.006202
0.033365 0.041931 -0.413953 0.910298 0.863866 0.503721 -0.004587 0.010087 0.010379 0.006052
0.043452 0.046518 -0.3653 0.93089 0.892034 0.451968 -0.00439 0.011187 0.011617 0.005886
0.054639 0.050908 -0.322682 0.946508 0.913765 0.406244 -0.00418 0.012261 0.01283 0.005704
0.0669 0.055088 -0.28502 0.958521 0.930686 0.365819 -0.003956 0.013304 0.014013 0.005508
0.080204 0.059044 -0.251307 0.967907 0.944041 0.329829 -0.003717 0.014316 0.015164 0.005298
0.09452 0.062761 -0.221197 0.975229 0.954699 0.297574 -0.003468 0.01529 0.016282 0.005075
0.10981 0.066229 -0.193733 0.981054 0.963275 0.268516 -0.003205 0.01623 0.017363 0.00484
0.12604 0.069434 -0.16882 0.985647 0.970285 0.241965 -0.002934 0.01713 0.018406 0.00459
0.14317 0.072368 -0.145947 0.989292 0.9759 0.218219 -0.002654 0.01799 0.019409 0.00434
0.16116 0.075022 -0.124918 0.992167 0.980614 0.195949 -0.002367 0.0188 0.020368 0.00407
0.17996 0.077389 -0.105439 0.994426 0.984432 0.175767 -0.002075 0.01957 0.021283 0.0038
0.19953 0.079464 -0.0873923 0.996174 0.987603 0.156975 -0.00178 0.02029 0.022146 0.00352
0.21982 0.081244 -0.0704966 0.997512 0.990195 0.139695 -0.001482 0.02097 0.022966 0.00324
0.24079 0.082726 -0.0548755 0.998493 0.992313 0.123757 -0.001186 0.02158 0.023734 0.00296
0.26237 0.083912 -0.0401932 0.999192 0.994089 0.108566 -0.000891 0.02215 0.024448 0.00267
0.28452 0.084803 -0.0264691 0.99965 0.995537 0.0943712 -0.0006 0.02266 0.025107 0.00238
0.30718 0.085403 -0.0136233 0.999907 0.996711 0.0810334 -0.000315 0.02312 0.025707 0.00209
0.3303 0.085718 -0.00153061 0.999999 0.997683 0.0680273 -3.6e-005 0.02352 0.026252 0.00179
0.35382 0.085754 0.00984452 0.999952 0.998429 0.0560369 0.000235 0.02387 0.026726 0.0015
0.37769 0.085519 0.020534 0.999789 0.998992 0.0448886 0.000496 0.02415 0.027151 0.00122
0.40184 0.085023 0.030613 0.999531 0.999429 0.0338025 0.000747 0.02439 0.027497 0.00093
0.42623 0.084276 0.0401306 0.999194 0.999727 0.0233799 0.000986 0.02455 0.027794 0.00065
0.45078 0.08329 0.0491501 0.998791 0.999908 0.0135653 0.001214 0.02467 0.02801 0.00038
0.47545 0.082076 0.0576941 0.998334 0.999991 0.00426072 0.001428 0.02471 0.028164 0.00012
0.50016 0.080648 0.0658623 0.997829 0.999986 -0.00531116 0.001631 0.02471 0.028242 -0.00015
0.52487 0.079017 0.073663 0.997283 0.9999 -0.0141564 0.00182 0.02464 0.028253 -0.0004
0.54951 0.077197 0.0810867 0.996707 0.999743 -0.0226868 0.001994 0.02451 0.028203 -0.00064
0.57402 0.075203 0.0883096 0.996093 0.99952 -0.0309824 0.002157 0.02433 0.028067 -0.00087
0.59835 0.073046 0.0952461 0.995454 0.999236 -0.0390747 0.002304 0.02408 0.027874 -0.00109
0.62243 0.070742 0.102114 0.994773 0.998876 -0.0474053 0.00244 0.02377 0.027603 -0.00131
0.6462 0.068302 0.108661 0.994079 0.99845 -0.0556627 0.00256 0.02342 0.027265 -0.00152
0.66962 0.065742 0.11527 0.993334 0.998003 -0.0631694 0.002669 0.023 0.026858 -0.0017
0.69262 0.063073 0.121725 0.992564 0.997471 -0.0710751 0.002763 0.02253 0.026384 -0.00188
0.71515 0.06031 0.12825 0.991742 0.996868 -0.0790798 0.002845 0.022 0.025842 -0.00205
0.73715 0.057465 0.134738 0.990881 0.996187 -0.0872394 0.002914 0.02143 0.025236 -0.00221
0.75858 0.054551 0.141375 0.989956 0.995494 -0.0948244 0.002969 0.02079 0.024566 -0.00234
0.77937 0.051582 0.148172 0.988962 0.99463 -0.103494 0.003013 0.02011 0.023834 -0.00248
0.79948 0.048569 0.154989 0.987916 0.993695 -0.112121 0.003042 0.01939 0.023043 -0.0026
0.81887 0.045527 0.162197 0.986758 0.992734 -0.120329 0.003059 0.01861 0.022193 -0.00269
0.83748 0.042468 0.169733 0.98549 0.99158 -0.129497 0.003064 0.01779 0.021287 -0.00278
0.85527 0.039404 0.177637 0.984096 0.990246 -0.139327 0.003056 0.01693 0.020327 -0.00286
0.8722 0.036348 0.18614 0.982523 0.988766 -0.149472 0.003035 0.01602 0.019316 -0.00292
0.88822 0.033313 0.195178 0.980768 0.986938 -0.161102 0.003001 0.01508 0.018256 -0.00298
0.9033 0.030312 0.205046 0.978752 0.984942 -0.172887 0.002956 0.01411 0.017148 -0.00301
0.91741 0.027356 0.216085 0.976374 0.982531 -0.186102 0.002897 0.01309 0.015997 -0.00303
0.9305 0.024459 0.228404 0.973566 0.979557 -0.201166 0.002827 0.01205 0.014803 -0.00304
0.94255 0.021632 0.242619 0.970122 0.975807 -0.218636 0.002746 0.01098 0.013568 -0.00304
0.95353 0.018886 0.259427 0.965763 0.971329 -0.237738 0.002654 0.00988 0.012298 -0.00301
0.96341 0.016232 0.27989 0.960032 0.965393 -0.260798 0.002551 0.00875 0.010994 -0.00297
0.97216 0.013681 0.305571 0.952169 0.957208 -0.289402 0.002439 0.0076 0.009658 -0.00292
0.97976 0.011242 0.338525 0.940957 0.945748 -0.324901 0.0023169 0.00644 0.008296 -0.00285
0.9862 0.0089251 0.385166 0.922847 0.929178 -0.369633 0.002187 0.00524 0.0069129 -0.00275
0.99144 0.0067381 0.453464 0.891275 0.902009 -0.431716 0.0020453 0.00402 0.0055159 -0.00264
0.99546 0.0046928 0.56319 0.826327 0.855911 -0.517123 0.0018811 0.00276 0.0041213 -0.00249
0.99822 0.0028117 0.755355 0.655316 0.769563 -0.638571 0.0016483 0.00143 0.0027477 -0.00228
0.99965 0.0011634 1 0 0.548075 -0.836429 0.0011634 0 0.0014088 -0.00215
0.99965 0 1 0 0 -1 0.0011635 0 0 -0.00215
1.0018 0 1 0 0 -1 0.0025723 0 0 -0.0041
1.0018 -0.0025723 0.916948 -0.399007 -0.342106 -0.939662 0.0029875 -0.0013 -0.0014927 -0.0041
1.0005 -0.0055598 0.787199 -0.616699 -0.567487 -0.823382 0.003255 -0.00255 -0.0028947 -0.0042
0.99795 -0.0088148 0.664493 -0.747294 -0.709606 -0.704599 0.0034412 -0.00387 -0.0042802 -0.00425
0.99408 -0.012256 0.573355 -0.819307 -0.795225 -0.606314 0.003583 -0.00512 -0.005666 -0.00432
0.98896 -0.015839 0.503651 -0.863907 -0.848404 -0.52935 0.003702 -0.00635 -0.007052 -0.0044
0.98261 -0.019541 0.450719 -0.892666 -0.883847 -0.467777 0.003802 -0.00753 -0.008427 -0.00446
0.97508 -0.023343 0.40792 -0.913018 -0.908545 -0.417786 0.003887 -0.0087 -0.009786 -0.0045
0.96638 -0.02723 0.373259 -0.927727 -0.926429 -0.376469 0.003959 -0.00984 -0.011123 -0.00452
0.95654 -0.031189 0.344481 -0.938793 -0.939811 -0.341695 0.004018 -0.01095 -0.012432 -0.00452
0.94559 -0.035207 0.319434 -0.947608 -0.950122 -0.311879 0.004062 -0.01205 -0.013709 -0.0045
0.93354 -0.039269 0.298159 -0.954516 -0.958101 -0.286431 0.004092 -0.0131 -0.014952 -0.00447
0.92044 -0.043361 0.279415 -0.96017 -0.964706 -0.26333 0.004109 -0.01412 -0.016156 -0.00441
0.90632 -0.04747 0.262307 -0.964984 -0.970004 -0.243089 0.00411 -0.01512 -0.017318 -0.00434
0.8912 -0.05158 0.246844 -0.969055 -0.974443 -0.224636 0.004096 -0.01608 -0.018436 -0.00425
0.87512 -0.055676 0.232853 -0.972512 -0.978112 -0.208077 0.004068 -0.01699 -0.019508 -0.00415
0.85813 -0.059744 0.21985 -0.975534 -0.981275 -0.192613 0.004025 -0.01786 -0.020531 -0.00403
0.84027 -0.063769 0.207471 -0.978241 -0.984105 -0.177588 0.003966 -0.0187 -0.021501 -0.00388
0.82157 -0.067735 0.195874 -0.980629 -0.986439 -0.164128 0.003893 -0.01949 -0.022418 -0.00373
0.80208 -0.071628 0.184846 -0.982768 -0.988508 -0.15117 0.003805 -0.02023 -0.023279 -0.00356
0.78185 -0.075433 0.174172 -0.984715 -0.990294 -0.138991 0.003702 -0.02093 -0.024082 -0.00338
0.76092 -0.079135 0.163983 -0.986463 -0.991895 -0.127058 0.003584 -0.02156 -0.024825 -0.00318
0.73936 -0.082719 0.15392 -0.988083 -0.993331 -0.1153 0.003452 -0.02216 -0.025501 -0.00296
0.7172 -0.086171 0.144076 -0.989567 -0.994543 -0.104332 0.003305 -0.0227 -0.026119 -0.00274
0.6945 -0.089476 0.134404 -0.990927 -0.995637 -0.0933153 0.003144 -0.02318 -0.026674 -0.0025
0.67132 -0.09262 0.12478 -0.992184 -0.996616 -0.0821952 0.002968 -0.0236 -0.02716 -0.00224
0.64772 -0.095588 0.115077 -0.993357 -0.997457 -0.0712676 0.002778 -0.02398 -0.027572 -0.00197
0.62374 -0.098366 0.105337 -0.994437 -0.998172 -0.0604324 0.002574 -0.0243 -0.027914 -0.00169
0.59944 -0.10094 0.0952875 -0.99545 -0.998769 -0.0496019 0.00235 -0.02455 -0.02819 -0.0014
0.57489 -0.10329 0.0857781 -0.996314 -0.999251 -0.0386898 0.00213 -0.02474 -0.02841 -0.0011
0.55015 -0.10542 0.0749494 -0.997187 -0.999626 -0.0273294 0.00187 -0.02488 -0.02853 -0.00078
0.52527 -0.10729 0.0647676 -0.9979 -0.999871 -0.0160762 0.00162 -0.02496 -0.02861 -0.00046
0.50031 -0.10891 0.0539645 -0.998543 -0.99999 -0.00454541 0.00135 -0.02498 -0.0286 -0.00013
0.47533 -0.11026 0.0424807 -0.999097 -0.999975 0.00701245 0.00106 -0.02493 -0.02852 0.0002
0.4504 -0.11132 0.030996 -0.99952 -0.999812 0.019383 0.00077 -0.02483 -0.02837 0.00055
0.42557 -0.11209 0.0182451 -0.999834 -0.999489 0.0319553 0.00045 -0.02466 -0.02815 0.0009
0.40091 -0.11254 0.00613736 -0.999981 -0.99898 0.0451476 0.00015 -0.02444 -0.02788 0.00126
0.37647 -0.11269 -0.00786725 -0.999969 -0.998293 0.058403 -0.00019 -0.02415 -0.02752 0.00161
0.35232 -0.1125 -0.0214057 -0.999771 -0.997344 0.0728418 -0.00051 -0.02382 -0.02711 0.00198
0.3285 -0.11199 -0.0367117 -0.999326 -0.996191 0.0871948 -0.00086 -0.02341 -0.02662 0.00233
0.30509 -0.11113 -0.0522163 -0.998636 -0.994723 0.1026 -0.0012 -0.02295 -0.02608 0.00269
0.28214 -0.10993 -0.0689089 -0.997623 -0.992866 0.119237 -0.00155 -0.02244 -0.02548 0.00306
0.2597 -0.10838 -0.0865117 -0.996251 -0.99064 0.136502 -0.0019 -0.02188 -0.02482 0.00342
0.23782 -0.10648 -0.105806 -0.994387 -0.988047 0.154152 -0.00226 -0.02124 -0.0241 0.00376
0.21658 -0.10422 -0.124865 -0.992174 -0.984762 0.173906 -0.00259 -0.02058 -0.02333 0.00412
0.196 -0.10163 -0.146854 -0.989158 -0.980998 0.19402 -0.002947 -0.01985 -0.0225 0.00445
0.17615 -0.098683 -0.169659 -0.985503 -0.976435 0.215812 -0.003283 -0.01907 -0.021627 0.00478
0.15708 -0.0954 -0.194255 -0.980951 -0.970856 0.239665 -0.003614 -0.01825 -0.0207 0.00511
0.13883 -0.091786 -0.220807 -0.975318 -0.964132 0.265425 -0.003937 -0.01739 -0.019724 0.00543
0.12144 -0.087849 -0.24986 -0.968282 -0.956169 0.292814 -0.00425 -0.01647 -0.018711 0.00573
0.10497 -0.083599 -0.281179 -0.959655 -0.946418 0.322944 -0.00455 -0.015529 -0.017651 0.006023
0.089441 -0.079049 -0.31564 -0.948879 -0.934691 0.355462 -0.004836 -0.014538 -0.016558 0.006297
0.074903 -0.074213 -0.353565 -0.93541 -0.92024 0.391354 -0.005108 -0.013514 -0.015423 0.006559
0.061389 -0.069105 -0.395494 -0.918469 -0.902421 0.430855 -0.005364 -0.012457 -0.014253 0.006805
0.048932 -0.063741 -0.442062 -0.896984 -0.880315 0.474389 -0.005603 -0.011369 -0.013051 0.007033
0.037563 -0.058138 -0.494074 -0.86942 -0.852598 0.522567 -0.005826 -0.010252 -0.011819 0.007244
0.027311 -0.052312 -0.551909 -0.833904 -0.817654 0.57571 -0.00603 -0.009111 -0.010561 0.007436
0.0182 -0.046282 -0.616148 -0.78763 -0.773374 0.63395 -0.006216 -0.007946 -0.00928 0.007607
0.010254 -0.040066 -0.686434 -0.727192 -0.716948 0.697126 -0.006383 -0.006762 -0.007979 0.0077584
0.003492 -0.033683 -0.761508 -0.648156 -0.645282 0.763945 -0.006532 -0.0055597 -0.006662 0.0078871
-0.0020677 -0.027151 -0.837635 -0.54623 -0.55507 0.831804 -0.006659 -0.0043424 -0.005334 0.0079933
-0.0064101 -0.020492 -0.908403 -0.418096 -0.443798 0.896127 -0.006763 -0.0031127 -0.004 0.0080769
-0.0095228 -0.013729 -0.964547 -0.263909 -0.310994 0.950412 -0.0068426 -0.0018722 -0.002662 0.0081352
-0.011395 -0.0068864 -0.995907 -0.0903833 -0.160527 0.987031 -0.00688669 -0.000625 -0.0013289 0.008171
-0.01202 2.9e-007 -0.995907 0.0903831 2.76216e-005 1 -0.00688671 0.000625 2.26e-007 0.008182
-0.011395 0.006887 -0.964516 0.264023 0.160593 0.987021 -0.006842 0.0018729 0.0013293 0.00817
-0.0095221 0.013729 -0.908411 0.418079 0.31111 0.950374 -0.006764 0.003113 0.002663 0.0081349