VARIABLES = "X", "Y", "Speed", "P", "M","H", "S", "Xvel", "Yvel","F0", "G0", "rho", "RES0", "RES1", "RES2", "RES3" 
ZONE T = "CELL CENTERS AT TIMESTEP 0 ", I = 128 , J = 64, F=POINT 

0.999675 -0.000312425 264.958 101325 0.8 309488 3295.47 264.958 0 342.591 0 1.293 -333.723 -201534 -125260 -1.03283e+008
1.00073 -0.00093395 264.958 101325 0.8 309488 3295.47 264.958 0 342.591 0 1.293 -187.766 -105284 16573.8 -5.81112e+007
1.00385 -0.00165933 264.958 101325 0.8 309488 3295.47 264.958 0 342.591 0 1.293 -117.202 -65717.6 6113.8 -3.62727e+007
1.0089 -0.00241275 264.958 101325 0.8 309488 3295.47 264.958 0 342.591 0 1.293 -84.1841 -47203.6 3106.73 -2.6054e+007
1.01585 -0.00317765 264.958 101325 0.8 309488 3295.47 264.958 0 342.591 0 1.293 -65.4924 -36722.8 1868.7 -2.02691e+007
1.02465 -0.00395168 264.958 101325 0.8 309488 3295.47 264.958 0 342.591 0 1.293 -54.3132 -30454.4 1281.44 -1.68093e+007
1.0353 -0.00473627 264.958 101325 0.8 309488 3295.47 264.958 0 342.591 0 1.293 -46.2622 -25940.1 928.07 -1.43176e+007
1.04785 -0.005534 264.958 101325 0.8 309488 3295.47 264.958 0 342.591 0 1.293 -40.5697 -22748.2 712.965 -1.25558e+007
1.06225 -0.00634775 264.958 101325 0.8 309488 3295.47 264.958 0 342.591 0 1.293 -36.6231 -20535.3 580.617 -1.13344e+007
1.0786 -0.00718025 264.958 101325 0.8 309488 3295.47 264.958 0 342.591 0 1.293 -33.0217 -18515.9 471.788 -1.02198e+007
1.09695 -0.0080345 264.958 101325 0.8 309488 3295.47 264.958 0 342.591 0 1.293 -30.6214 -17170 405.559 -9.47695e+006
1.11728 -0.00891375 264.958 101325 0.8 309488 3295.47 264.958 0 342.591 0 1.293 -28.4771 -15967.6 350.652 -8.81331e+006
1.13968 -0.009821 264.958 101325 0.8 309488 3295.47 264.958 0 342.591 0 1.293 -26.9139 -15091.2 313.155 -8.32953e+006
1.16423 -0.0107593 264.958 101325 0.8 309488 3295.47 264.958 0 342.591 0 1.293 -25.3778 -14229.8 278.381 -7.85413e+006
1.19098 -0.0117317 264.958 101325 0.8 309488 3295.47 264.958 0 342.591 0 1.293 -24.351 -13654 256.281 -7.53633e+006
1.22003 -0.0127418 264.958 101325 0.8 309488 3295.47 264.958 0 342.591 0 1.293 -23.2268 -13023.7 233.138 -7.18842e+006
1.25148 -0.0137927 264.958 101325 0.8 309488 3295.47 264.958 0 342.591 0 1.293 -22.493 -12612.3 218.624 -6.96132e+006
1.28537 -0.014888 264.958 101325 0.8 309488 3295.47 264.958 0 342.591 0 1.293 -21.7186 -12178 203.814 -6.72163e+006
1.32185 -0.016031 264.958 101325 0.8 309488 3295.47 264.958 0 342.591 0 1.293 -21.1315 -11848.8 192.933 -6.53993e+006
1.36103 -0.0172258 264.958 101325 0.8 309488 3295.47 264.958 0 342.591 0 1.293 -20.6279 -11566.5 183.84 -6.3841e+006
1.403 -0.018476 264.958 101325 0.8 309488 3295.47 264.958 0 342.591 0 1.293 -20.1574 -11302.6 175.541 -6.23847e+006
1.4479 -0.0197857 264.958 101325 0.8 309488 3295.47 264.958 0 342.591 0 1.293 -19.762 -11080.9 168.717 -6.11611e+006
1.4959 -0.0211592 264.958 101325 0.8 309488 3295.47 264.958 0 342.591 0 1.293 -19.3984 -10877.1 162.561 -6.00359e+006
1.54712 -0.022601 264.958 101325 0.8 309488 3295.47 264.958 0 342.591 0 1.293 -19.101 -10710.3 157.609 -5.91151e+006
1.60173 -0.0241157 264.958 101325 0.8 309488 3295.47 264.958 0 342.591 0 1.293 -18.8656 -10578.3 153.746 -5.83867e+006
1.6599 -0.025708 264.958 101325 0.8 309488 3295.47 264.958 0 342.591 0 1.293 -18.6094 -10434.7 149.597 -5.7594e+006
1.72182 -0.0273827 264.958 101325 0.8 309488 3295.47 264.958 0 342.591 0 1.293 -18.3897 -10311.5 146.083 -5.6914e+006
1.7877 -0.029146 264.958 101325 0.8 309488 3295.47 264.958 0 342.591 0 1.293 -18.2289 -10221.3 143.536 -5.64161e+006
1.85772 -0.031003 264.958 101325 0.8 309488 3295.47 264.958 0 342.591 0 1.293 -18.0784 -10136.9 141.175 -5.59505e+006
1.93213 -0.0329595 264.958 101325 0.8 309488 3295.47 264.958 0 342.591 0 1.293 -17.9135 -10044.4 138.609 -5.54401e+006
2.01112 -0.035022 264.958 101325 0.8 309488 3295.47 264.958 0 342.591 0 1.293 -17.8176 -9990.65 137.128 -5.51432e+006
2.09497 -0.0371973 264.958 101325 0.8 309488 3295.47 264.958 0 342.591 0 1.293 -17.6888 -9918.46 135.152 -5.47448e+006
2.18398 -0.039492 264.958 101325 0.8 309488 3295.47 264.958 0 342.591 0 1.293 -17.6 -9868.65 133.797 -5.44698e+006
2.27838 -0.0419138 264.958 101325 0.8 309488 3295.47 264.958 0 342.591 0 1.293 -17.512 -9819.29 132.461 -5.41974e+006
2.3785 -0.0444703 264.958 101325 0.8 309488 3295.47 264.958 0 342.591 0 1.293 -17.426 -9771.08 131.162 -5.39313e+006
2.48468 -0.0471695 264.958 101325 0.8 309488 3295.47 264.958 0 342.591 0 1.293 -17.377 -9743.6 130.425 -5.37796e+006
2.59722 -0.0500205 264.958 101325 0.8 309488 3295.47 264.958 0 342.591 0 1.293 -17.2937 -9696.91 129.178 -5.35219e+006
2.7165 -0.0530325 264.958 101325 0.8 309488 3295.47 264.958 0 342.591 0 1.293 -17.2612 -9678.67 128.692 -5.34213e+006
2.8429 -0.056215 264.958 101325 0.8 309488 3295.47 264.958 0 342.591 0 1.293 -17.2 -9644.37 127.781 -5.3232e+006
2.97687 -0.05958 264.958 101325 0.8 309488 3295.47 264.958 0 342.591 0 1.293 -17.1825 -9634.55 127.52 -5.31778e+006
3.11883 -0.0631375 264.958 101325 0.8 309488 3295.47 264.958 0 342.591 0 1.293 -17.1199 -9599.44 126.592 -5.29839e+006
3.2692 -0.0668975 264.958 101325 0.8 309488 3295.47 264.958 0 342.591 0 1.293 -17.0972 -9586.7 126.256 -5.29136e+006
3.4285 -0.0708725 264.958 101325 0.8 309488 3295.47 264.958 0 342.591 0 1.293 -17.0561 -9563.7 125.651 -5.27867e+006
3.59725 -0.0750775 264.958 101325 0.8 309488 3295.47 264.958 0 342.591 0 1.293 -17.0492 -9559.82 125.549 -5.27652e+006
3.77603 -0.079525 264.958 101325 0.8 309488 3295.47 264.958 0 342.591 0 1.293 -17.0061 -9535.65 124.914 -5.26319e+006
3.96542 -0.08423 264.958 101325 0.8 309488 3295.47 264.958 0 342.591 0 1.293 -16.9944 -9529.06 124.742 -5.25955e+006
4.16605 -0.08921 264.958 101325 0.8 309488 3295.47 264.958 0 342.591 0 1.293 -16.9759 -9518.71 124.47 -5.25384e+006
4.3786 -0.09448 264.958 101325 0.8 309488 3295.47 264.958 0 342.591 0 1.293 -16.9599 -9509.75 124.236 -5.24889e+006
4.60382 -0.10006 264.958 101325 0.8 309488 3295.47 264.958 0 342.591 0 1.293 -16.9535 -9506.16 124.142 -5.24691e+006
4.84247 -0.105967 264.958 101325 0.8 309488 3295.47 264.958 0 342.591 0 1.293 -16.9275 -9491.58 123.762 -5.23886e+006
5.0953 -0.112223 264.958 101325 0.8 309488 3295.47 264.958 0 342.591 0 1.293 -16.931 -9493.55 123.813 -5.23995e+006
5.36325 -0.118847 264.958 101325 0.8 309488 3295.47 264.958 0 342.591 0 1.293 -16.9102 -9481.86 123.508 -5.2335e+006
5.6473 -0.125865 264.958 101325 0.8 309488 3295.47 264.958 0 342.591 0 1.293 -16.9038 -9478.3 123.415 -5.23153e+006
5.94835 -0.133302 264.958 101325 0.8 309488 3295.47 264.958 0 342.591 0 1.293 -16.9099 -9481.69 123.504 -5.2334e+006
6.26755 -0.141185 264.958 101325 0.8 309488 3295.47 264.958 0 342.591 0 1.293 -16.8901 -9470.58 123.214 -5.22727e+006
6.6061 -0.149543 264.958 101325 0.8 309488 3295.47 264.958 0 342.591 0 1.293 -16.8976 -9474.82 123.324 -5.22961e+006
6.96523 -0.158408 264.958 101325 0.8 309488 3295.47 264.958 0 342.591 0 1.293 -16.8912 -9471.23 123.231 -5.22763e+006
7.34633 -0.16781 264.958 101325 0.8 309488 3295.47 264.958 0 342.591 0 1.293 -16.8777 -9463.67 123.034 -5.22346e+006
7.75095 -0.177792 264.958 101325 0.8 309488 3295.47 264.958 0 342.591 0 1.293 -16.8871 -9468.91 123.171 -5.22635e+006
8.1808 -0.1884 264.958 101325 0.8 309488 3295.47 264.958 0 342.591 0 1.293 -16.8886 -9469.73 123.192 -5.2268e+006
8.63782 -0.199678 264.958 101325 0.8 309488 3295.47 264.958 0 342.591 0 1.293 -16.8872 -9468.98 123.173 -5.22639e+006
9.12435 -0.211683 264.958 101325 0.8 309488 3295.47 264.958 0 342.591 0 1.293 -16.8872 -9468.96 123.172 -5.22637e+006
9.64345 -0.224493 264.958 101325 0.8 309488 3295.47 264.958 0 342.591 0 1.293 -16.8886 -9469.77 123.193 -5.22682e+006
10.2028 -0.238225 264.958 101325 0.8 309488 3295.47 264.958 0 342.591 0 1.293 636.597 751913 101448 5.64739e+008
0.998715 -0.00110145 264.958 101325 0.8 309488 3295.47 264.958 0 342.591 0 1.293 -185.987 -118584 13400.8 -5.75607e+007
1.00004 -0.00302688 264.958 101325 0.8 309488 3295.47 264.958 0 342.591 0 1.293 -5.32416 -2985.36 9590.7 -1.64776e+006
1.00322 -0.0051629 264.958 101325 0.8 309488 3295.47 264.958 0 342.591 0 1.293 -44.1954 -24781.2 8774.92 -1.36779e+007
1.0083 -0.00738362 264.958 101325 0.8 309488 3295.47 264.958 0 342.591 0 1.293 -49.2912 -27638.5 6198.6 -1.5255e+007
1.01525 -0.0096494 264.958 101325 0.8 309488 3295.47 264.958 0 342.591 0 1.293 -45.9777 -25780.6 4259.89 -1.42296e+007
1.02405 -0.0119509 264.958 101325 0.8 309488 3295.47 264.958 0 342.591 0 1.293 -41.3469 -23184 3119.56 -1.27964e+007
1.03468 -0.0142898 264.958 101325 0.8 309488 3295.47 264.958 0 342.591 0 1.293 -38.1772 -21406.7 2426.35 -1.18154e+007
1.0472 -0.0166717 264.958 101325 0.8 309488 3295.47 264.958 0 342.591 0 1.293 -34.5244 -19358.5 1888.28 -1.06849e+007
1.0616 -0.0191043 264.958 101325 0.8 309488 3295.47 264.958 0 342.591 0 1.293 -31.4627 -17641.7 1553.66 -9.73733e+006
1.07793 -0.0215948 264.958 101325 0.8 309488 3295.47 264.958 0 342.591 0 1.293 -29.8579 -16741.9 1318.47 -9.24065e+006
1.09625 -0.024152 264.958 101325 0.8 309488 3295.47 264.958 0 342.591 0 1.293 -27.5868 -15468.4 1124.19 -8.53778e+006
1.11658 -0.0267853 264.958 101325 0.8 309488 3295.47 264.958 0 342.591 0 1.293 -26.4667 -14840.4 999.632 -8.19112e+006
1.13895 -0.029503 264.958 101325 0.8 309488 3295.47 264.958 0 342.591 0 1.293 -24.7734 -13890.9 882.296 -7.66707e+006
1.16348 -0.0323143 264.958 101325 0.8 309488 3295.47 264.958 0 342.591 0 1.293 -24.053 -13487 804.52 -7.44411e+006
1.1902 -0.0352288 264.958 101325 0.8 309488 3295.47 264.958 0 342.591 0 1.293 -22.7901 -12778.9 731.165 -7.05327e+006
1.2192 -0.0382562 264.958 101325 0.8 309488 3295.47 264.958 0 342.591 0 1.293 -22.4327 -12578.4 685.708 -6.94264e+006
1.2506 -0.0414067 264.958 101325 0.8 309488 3295.47 264.958 0 342.591 0 1.293 -21.369 -11982 630.278 -6.61345e+006
1.28448 -0.0446903 264.958 101325 0.8 309488 3295.47 264.958 0 342.591 0 1.293 -20.9644 -11755.2 596.737 -6.48824e+006
1.32092 -0.0481175 264.958 101325 0.8 309488 3295.47 264.958 0 342.591 0 1.293 -20.4631 -11474 565.877 -6.33307e+006
1.36003 -0.0517 264.958 101325 0.8 309488 3295.47 264.958 0 342.591 0 1.293 -20.01 -11220 539.961 -6.19287e+006
1.40193 -0.0554492 264.958 101325 0.8 309488 3295.47 264.958 0 342.591 0 1.293 -19.6224 -11002.6 516.751 -6.07289e+006
1.44678 -0.059377 264.958 101325 0.8 309488 3295.47 264.958 0 342.591 0 1.293 -19.2647 -10802.1 497.105 -5.96219e+006
1.4947 -0.0634963 264.958 101325 0.8 309488 3295.47 264.958 0 342.591 0 1.293 -19.0564 -10685.3 482.806 -5.89773e+006
1.54587 -0.0678202 264.958 101325 0.8 309488 3295.47 264.958 0 342.591 0 1.293 -18.7407 -10508.3 466.308 -5.80002e+006
1.60043 -0.0723628 264.958 101325 0.8 309488 3295.47 264.958 0 342.591 0 1.293 -18.4811 -10362.7 454.297 -5.71967e+006
1.65853 -0.0771373 264.958 101325 0.8 309488 3295.47 264.958 0 342.591 0 1.293 -18.2591 -10238.2 442.395 -5.65098e+006
1.7204 -0.0821602 264.958 101325 0.8 309488 3295.47 264.958 0 342.591 0 1.293 -18.1846 -10196.4 435.559 -5.62791e+006
1.7862 -0.087451 264.958 101325 0.8 309488 3295.47 264.958 0 342.591 0 1.293 -18.0505 -10121.3 428.591 -5.58642e+006
1.85613 -0.0930205 264.958 101325 0.8 309488 3295.47 264.958 0 342.591 0 1.293 -17.7661 -9961.77 417.528 -5.49838e+006
1.93043 -0.098887 264.958 101325 0.8 309488 3295.47 264.958 0 342.591 0 1.293 -17.8013 -9981.53 414.984 -5.50929e+006
2.00932 -0.105074 264.958 101325 0.8 309488 3295.47 264.958 0 342.591 0 1.293 -17.5967 -9866.78 407.679 -5.44595e+006
2.09307 -0.1116 264.958 101325 0.8 309488 3295.47 264.958 0 342.591 0 1.293 -17.5652 -9849.12 404.119 -5.43621e+006
2.18195 -0.118485 264.958 101325 0.8 309488 3295.47 264.958 0 342.591 0 1.293 -17.4715 -9796.6 399.884 -5.40722e+006
2.27625 -0.125749 264.958 101325 0.8 309488 3295.47 264.958 0 342.591 0 1.293 -17.3259 -9714.98 394.092 -5.36216e+006
2.37627 -0.133418 264.958 101325 0.8 309488 3295.47 264.958 0 342.591 0 1.293 -17.369 -9739.14 393.534 -5.3755e+006
2.4823 -0.141517 264.958 101325 0.8 309488 3295.47 264.958 0 342.591 0 1.293 -17.217 -9653.93 388.731 -5.32847e+006
2.5947 -0.150068 264.958 101325 0.8 309488 3295.47 264.958 0 342.591 0 1.293 -17.2303 -9661.37 387.115 -5.33258e+006
2.71385 -0.159103 264.958 101325 0.8 309488 3295.47 264.958 0 342.591 0 1.293 -17.1249 -9602.25 383.902 -5.29994e+006
2.8401 -0.16865 264.958 101325 0.8 309488 3295.47 264.958 0 342.591 0 1.293 -17.1578 -9620.7 383.317 -5.31013e+006
2.97387 -0.178743 264.958 101325 0.8 309488 3295.47 264.958 0 342.591 0 1.293 -17.0403 -9554.84 380.232 -5.27378e+006
3.11565 -0.189412 264.958 101325 0.8 309488 3295.47 264.958 0 342.591 0 1.293 -17.0623 -9567.18 379.36 -5.28059e+006
3.26585 -0.20069 264.958 101325 0.8 309488 3295.47 264.958 0 342.591 0 1.293 -16.9947 -9529.23 377.29 -5.25964e+006
3.42495 -0.212615 264.958 101325 0.8 309488 3295.47 264.958 0 342.591 0 1.293 -17.0261 -9546.83 377.104 -5.26936e+006
3.5935 -0.22523 264.958 101325 0.8 309488 3295.47 264.958 0 342.591 0 1.293 -16.9383 -9497.65 374.946 -5.24221e+006
3.77205 -0.238572 264.958 101325 0.8 309488 3295.47 264.958 0 342.591 0 1.293 -16.9609 -9510.29 374.511 -5.24919e+006
3.96122 -0.252688 264.958 101325 0.8 309488 3295.47 264.958 0 342.591 0 1.293 -16.92 -9487.37 373.233 -5.23654e+006
4.16162 -0.267628 264.958 101325 0.8 309488 3295.47 264.958 0 342.591 0 1.293 -16.9333 -9494.83 373.315 -5.24065e+006
4.3739 -0.283438 264.958 101325 0.8 309488 3295.47 264.958 0 342.591 0 1.293 -16.9061 -9479.57 372.139 -5.23223e+006
4.59882 -0.300173 264.958 101325 0.8 309488 3295.47 264.958 0 342.591 0 1.293 -16.8614 -9454.51 371.02 -5.2184e+006
4.83717 -0.317892 264.958 101325 0.8 309488 3295.47 264.958 0 342.591 0 1.293 -16.9032 -9477.95 371.431 -5.23134e+006
5.0897 -0.336658 264.958 101325 0.8 309488 3295.47 264.958 0 342.591 0 1.293 -16.864 -9455.99 370.692 -5.21922e+006
5.3573 -0.356533 264.958 101325 0.8 309488 3295.47 264.958 0 342.591 0 1.293 -16.878 -9463.81 370.581 -5.22353e+006
5.64098 -0.377585 264.958 101325 0.8 309488 3295.47 264.958 0 342.591 0 1.293 -16.8672 -9457.74 369.989 -5.22018e+006
5.94165 -0.399892 264.958 101325 0.8 309488 3295.47 264.958 0 342.591 0 1.293 -16.8317 -9437.84 369.418 -5.2092e+006
6.26042 -0.423535 264.958 101325 0.8 309488 3295.47 264.958 0 342.591 0 1.293 -16.8667 -9457.46 369.75 -5.22003e+006
6.59852 -0.448603 264.958 101325 0.8 309488 3295.47 264.958 0 342.591 0 1.293 -16.8355 -9439.98 369.152 -5.21038e+006
6.95717 -0.47519 264.958 101325 0.8 309488 3295.47 264.958 0 342.591 0 1.293 -16.8274 -9435.45 368.927 -5.20788e+006
7.33775 -0.503398 264.958 101325 0.8 309488 3295.47 264.958 0 342.591 0 1.293 -16.8756 -9462.49 369.805 -5.2228e+006
7.7418 -0.53334 264.958 101325 0.8 309488 3295.47 264.958 0 342.591 0 1.293 -16.838 -9441.38 368.956 -5.21115e+006
8.171 -0.565145 264.958 101325 0.8 309488 3295.47 264.958 0 342.591 0 1.293 -16.8398 -9442.42 369.073 -5.21173e+006
8.62725 -0.598955 264.958 101325 0.8 309488 3295.47 264.958 0 342.591 0 1.293 -16.8424 -9443.83 369.108 -5.21251e+006
9.1128 -0.634935 264.958 101325 0.8 309488 3295.47 264.958 0 342.591 0 1.293 -16.8521 -9449.3 369.37 -5.21552e+006
9.63042 -0.673285 264.958 101325 0.8 309488 3295.47 264.958 0 342.591 0 1.293 -16.8583 -9452.76 369.5 -5.21744e+006
10.1838 -0.714252 264.958 101325 0.8 309488 3295.47 264.958 0 342.591 0 1.293 663.234 780896 55664.7 5.89666e+008
0.996465 -0.00215532 264.958 101325 0.8 309488 3295.47 264.958 0 342.591 0 1.293 -266.166 -163552 38725.1 -8.23752e+007
0.998032 -0.0054699 264.958 101325 0.8 309488 3295.47 264.958 0 342.591 0 1.293 39.6551 22235.4 -6422.06 1.22728e+007
1.00134 -0.00898103 264.958 101325 0.8 309488 3295.47 264.958 0 342.591 0 1.293 -6.43958 -3610.8 4683.32 -1.99297e+006
1.00645 -0.0126169 264.958 101325 0.8 309488 3295.47 264.958 0 342.591 0 1.293 -20.7316 -11624.6 5206.17 -6.41617e+006
1.0134 -0.016338 264.958 101325 0.8 309488 3295.47 264.958 0 342.591 0 1.293 -27.609 -15480.9 4542.17 -8.54467e+006
1.02217 -0.020131 264.958 101325 0.8 309488 3295.47 264.958 0 342.591 0 1.293 -30.0953 -16875 3916.63 -9.31415e+006
1.03278 -0.0239958 264.958 101325 0.8 309488 3295.47 264.958 0 342.591 0 1.293 -26.6494 -14942.8 2917.28 -8.24766e+006
1.04525 -0.027939 264.958 101325 0.8 309488 3295.47 264.958 0 342.591 0 1.293 -29.2402 -16395.5 2722.16 -9.04948e+006
1.0596 -0.0319713 264.958 101325 0.8 309488 3295.47 264.958 0 342.591 0 1.293 -26.1063 -14638.3 2170.76 -8.0796e+006
1.07587 -0.0361043 264.958 101325 0.8 309488 3295.47 264.958 0 342.591 0 1.293 -25.6888 -14404.2 1922.16 -7.95037e+006
1.09413 -0.0403512 264.958 101325 0.8 309488 3295.47 264.958 0 342.591 0 1.293 -24.7342 -13868.9 1691.93 -7.65493e+006
1.11437 -0.0447268 264.958 101325 0.8 309488 3295.47 264.958 0 342.591 0 1.293 -23.669 -13271.7 1507.3 -7.32528e+006
1.13667 -0.0492448 264.958 101325 0.8 309488 3295.47 264.958 0 342.591 0 1.293 -22.7847 -12775.8 1359.47 -7.05157e+006
1.16113 -0.0539198 264.958 101325 0.8 309488 3295.47 264.958 0 342.591 0 1.293 -22.1223 -12404.4 1243.36 -6.84659e+006
1.18775 -0.0587678 264.958 101325 0.8 309488 3295.47 264.958 0 342.591 0 1.293 -21.7235 -12180.8 1166.29 -6.72317e+006
1.21663 -0.063805 264.958 101325 0.8 309488 3295.47 264.958 0 342.591 0 1.293 -20.7363 -11627.2 1066.46 -6.41762e+006
1.2479 -0.0690475 264.958 101325 0.8 309488 3295.47 264.958 0 342.591 0 1.293 -20.5263 -11509.5 1012.92 -6.35265e+006
1.28165 -0.074512 264.958 101325 0.8 309488 3295.47 264.958 0 342.591 0 1.293 -20.0644 -11250.5 957.393 -6.20969e+006
1.31798 -0.0802168 264.958 101325 0.8 309488 3295.47 264.958 0 342.591 0 1.293 -19.5375 -10955 903.57 -6.04662e+006
1.35695 -0.0861808 264.958 101325 0.8 309488 3295.47 264.958 0 342.591 0 1.293 -19.2824 -10812 871.44 -5.96768e+006
1.3987 -0.0924232 264.958 101325 0.8 309488 3295.47 264.958 0 342.591 0 1.293 -18.9881 -10647 837.063 -5.87658e+006
1.4434 -0.0989637 264.958 101325 0.8 309488 3295.47 264.958 0 342.591 0 1.293 -18.7614 -10519.9 809.394 -5.80642e+006
1.49115 -0.105822 264.958 101325 0.8 309488 3295.47 264.958 0 342.591 0 1.293 -18.3626 -10296.2 779.142 -5.68299e+006
1.54213 -0.113022 264.958 101325 0.8 309488 3295.47 264.958 0 342.591 0 1.293 -18.3963 -10315.2 766.3 -5.69345e+006
1.59647 -0.120587 264.958 101325 0.8 309488 3295.47 264.958 0 342.591 0 1.293 -18.1064 -10152.6 744.929 -5.6037e+006
1.65437 -0.128537 264.958 101325 0.8 309488 3295.47 264.958 0 342.591 0 1.293 -17.9786 -10080.9 727.732 -5.56416e+006
1.716 -0.136902 264.958 101325 0.8 309488 3295.47 264.958 0 342.591 0 1.293 -17.9813 -10082.4 721.435 -5.56498e+006
1.78153 -0.145712 264.958 101325 0.8 309488 3295.47 264.958 0 342.591 0 1.293 -17.5011 -9813.17 695.545 -5.41636e+006
1.8512 -0.154988 264.958 101325 0.8 309488 3295.47 264.958 0 342.591 0 1.293 -17.7522 -9953.98 697.278 -5.49408e+006
1.92523 -0.16476 264.958 101325 0.8 309488 3295.47 264.958 0 342.591 0 1.293 -17.4146 -9764.72 679.433 -5.38962e+006
2.00385 -0.175065 264.958 101325 0.8 309488 3295.47 264.958 0 342.591 0 1.293 -17.4108 -9762.57 674.053 -5.38843e+006
2.0873 -0.185933 264.958 101325 0.8 309488 3295.47 264.958 0 342.591 0 1.293 -17.3211 -9712.25 666.554 -5.36066e+006
2.17585 -0.197398 264.958 101325 0.8 309488 3295.47 264.958 0 342.591 0 1.293 -17.1344 -9607.6 655.983 -5.3029e+006
2.2698 -0.209498 264.958 101325 0.8 309488 3295.47 264.958 0 342.591 0 1.293 -17.3615 -9734.92 660.369 -5.37317e+006
2.36942 -0.22227 264.958 101325 0.8 309488 3295.47 264.958 0 342.591 0 1.293 -17.0554 -9563.28 646.531 -5.27844e+006
2.47507 -0.235757 264.958 101325 0.8 309488 3295.47 264.958 0 342.591 0 1.293 -17.075 -9574.27 644.197 -5.2845e+006
2.58708 -0.250003 264.958 101325 0.8 309488 3295.47 264.958 0 342.591 0 1.293 -17.0469 -9558.52 640.931 -5.27581e+006
2.70578 -0.265053 264.958 101325 0.8 309488 3295.47 264.958 0 342.591 0 1.293 -17.0623 -9567.18 639.407 -5.28059e+006
2.83155 -0.280955 264.958 101325 0.8 309488 3295.47 264.958 0 342.591 0 1.293 -16.9579 -9508.6 633.899 -5.24826e+006
2.96483 -0.297763 264.958 101325 0.8 309488 3295.47 264.958 0 342.591 0 1.293 -16.9384 -9497.69 631.539 -5.24223e+006
3.10608 -0.315532 264.958 101325 0.8 309488 3295.47 264.958 0 342.591 0 1.293 -16.9087 -9481.02 628.876 -5.23303e+006
3.25573 -0.334317 264.958 101325 0.8 309488 3295.47 264.958 0 342.591 0 1.293 -16.9024 -9477.48 627.09 -5.23108e+006
3.41423 -0.354183 264.958 101325 0.8 309488 3295.47 264.958 0 342.591 0 1.293 -16.8967 -9474.3 626.405 -5.22932e+006
3.58215 -0.375195 264.958 101325 0.8 309488 3295.47 264.958 0 342.591 0 1.293 -16.8337 -9438.97 622.631 -5.20982e+006
3.76005 -0.39742 264.958 101325 0.8 309488 3295.47 264.958 0 342.591 0 1.293 -16.859 -9453.19 622.895 -5.21767e+006
3.94853 -0.420932 264.958 101325 0.8 309488 3295.47 264.958 0 342.591 0 1.293 -16.8368 -9440.73 620.654 -5.2108e+006
4.14818 -0.445815 264.958 101325 0.8 309488 3295.47 264.958 0 342.591 0 1.293 -16.7937 -9416.54 619.301 -5.19745e+006
4.35965 -0.47215 264.958 101325 0.8 309488 3295.47 264.958 0 342.591 0 1.293 -16.8017 -9421.04 618.556 -5.19993e+006
4.58375 -0.500025 264.958 101325 0.8 309488 3295.47 264.958 0 342.591 0 1.293 -16.8071 -9424.04 618.06 -5.20158e+006
4.82118 -0.529537 264.958 101325 0.8 309488 3295.47 264.958 0 342.591 0 1.293 -16.8048 -9422.77 617.72 -5.20088e+006
5.07273 -0.56079 264.958 101325 0.8 309488 3295.47 264.958 0 342.591 0 1.293 -16.7646 -9400.22 615.927 -5.18844e+006
5.33933 -0.593892 264.958 101325 0.8 309488 3295.47 264.958 0 342.591 0 1.293 -16.7479 -9390.86 614.992 -5.18327e+006
5.6219 -0.628958 264.958 101325 0.8 309488 3295.47 264.958 0 342.591 0 1.293 -16.7887 -9413.77 615.973 -5.19591e+006
5.92143 -0.666108 264.958 101325 0.8 309488 3295.47 264.958 0 342.591 0 1.293 -16.7502 -9392.15 614.346 -5.18398e+006
6.23897 -0.705483 264.958 101325 0.8 309488 3295.47 264.958 0 342.591 0 1.293 -16.7665 -9401.29 614.847 -5.18903e+006
6.57572 -0.747227 264.958 101325 0.8 309488 3295.47 264.958 0 342.591 0 1.293 -16.7617 -9398.61 614.459 -5.18755e+006
6.93295 -0.791497 264.958 101325 0.8 309488 3295.47 264.958 0 342.591 0 1.293 -16.7746 -9405.86 614.634 -5.19155e+006
7.31198 -0.838477 264.958 101325 0.8 309488 3295.47 264.958 0 342.591 0 1.293 -16.7662 -9401.1 614.916 -5.18892e+006
7.7143 -0.888323 264.958 101325 0.8 309488 3295.47 264.958 0 342.591 0 1.293 -16.7177 -9373.93 612.085 -5.17392e+006
8.14157 -0.941245 264.958 101325 0.8 309488 3295.47 264.958 0 342.591 0 1.293 -16.773 -9404.97 614.707 -5.19105e+006
8.5956 -0.997502 264.958 101325 0.8 309488 3295.47 264.958 0 342.591 0 1.293 -16.7825 -9410.25 614.997 -5.19397e+006
9.07845 -1.05733 264.958 101325 0.8 309488 3295.47 264.958 0 342.591 0 1.293 -16.7609 -9398.14 614.248 -5.18729e+006
9.59235 -1.12099 264.958 101325 0.8 309488 3295.47 264.958 0 342.591 0 1.293 -16.7513 -9392.8 614.024 -5.18434e+006
10.1397 -1.18878 264.958 101325 0.8 309488 3295.47 264.958 0 342.591 0 1.293 687.796 803794 15012.8 6.10904e+008
0.99297 -0.00339275 264.958 101325 0.8 309488 3295.47 264.958 0 342.591 0 1.293 -295.006 -179628 50439.4 -9.13008e+007
0.994732 -0.00812565 264.958 101325 0.8 309488 3295.47 264.958 0 342.591 0 1.293 34.3307 19249.9 -10340.6 1.06249e+007
0.998158 -0.0130219 264.958 101325 0.8 309488 3295.47 264.958 0 342.591 0 1.293 11.3559 6367.48 -395.722 3.51452e+006
1.00333 -0.018057 264.958 101325 0.8 309488 3295.47 264.958 0 342.591 0 1.293 -0.430668 -241.484 1959.88 -133287
1.01028 -0.0232077 264.958 101325 0.8 309488 3295.47 264.958 0 342.591 0 1.293 -16.1551 -9058.48 4040.89 -4.99982e+006
1.019 -0.0284648 264.958 101325 0.8 309488 3295.47 264.958 0 342.591 0 1.293 -15.6297 -8763.88 3189.66 -4.83721e+006
1.02958 -0.0338297 264.958 101325 0.8 309488 3295.47 264.958 0 342.591 0 1.293 -21.9388 -12301.5 3352.77 -6.78981e+006
1.042 -0.0393112 264.958 101325 0.8 309488 3295.47 264.958 0 342.591 0 1.293 -19.8945 -11155.2 2704.44 -6.1571e+006
1.05628 -0.0449225 264.958 101325 0.8 309488 3295.47 264.958 0 342.591 0 1.293 -21.7597 -12201.1 2555.09 -6.73436e+006
1.07248 -0.0506795 264.958 101325 0.8 309488 3295.47 264.958 0 342.591 0 1.293 -21.3596 -11976.7 2267.75 -6.61054e+006
1.0906 -0.0565995 264.958 101325 0.8 309488 3295.47 264.958 0 342.591 0 1.293 -21.802 -12224.8 2112.9 -6.74746e+006
1.11073 -0.0627013 264.958 101325 0.8 309488 3295.47 264.958 0 342.591 0 1.293 -20.7001 -11606.9 1859.51 -6.40642e+006
1.1329 -0.0690048 264.958 101325 0.8 309488 3295.47 264.958 0 342.591 0 1.293 -20.6372 -11571.6 1739.34 -6.38695e+006
1.1572 -0.07553 264.958 101325 0.8 309488 3295.47 264.958 0 342.591 0 1.293 -20.628 -11566.5 1630.21 -6.38411e+006
1.18365 -0.0822983 264.958 101325 0.8 309488 3295.47 264.958 0 342.591 0 1.293 -19.7421 -11069.8 1498.82 -6.10993e+006
1.21235 -0.089333 264.958 101325 0.8 309488 3295.47 264.958 0 342.591 0 1.293 -19.5455 -10959.5 1412.69 -6.04908e+006
1.24345 -0.0966535 264.958 101325 0.8 309488 3295.47 264.958 0 342.591 0 1.293 -19.0806 -10698.8 1325.46 -5.9052e+006
1.27698 -0.104285 264.958 101325 0.8 309488 3295.47 264.958 0 342.591 0 1.293 -18.957 -10629.5 1276.98 -5.86695e+006
1.31308 -0.112255 264.958 101325 0.8 309488 3295.47 264.958 0 342.591 0 1.293 -18.9553 -10628.6 1231.8 -5.86644e+006
1.35182 -0.120589 264.958 101325 0.8 309488 3295.47 264.958 0 342.591 0 1.293 -18.4648 -10353.6 1175 -5.71465e+006
1.39332 -0.129313 264.958 101325 0.8 309488 3295.47 264.958 0 342.591 0 1.293 -18.2412 -10228.2 1131.56 -5.64543e+006
1.43775 -0.138453 264.958 101325 0.8 309488 3295.47 264.958 0 342.591 0 1.293 -18.1734 -10190.1 1104.45 -5.62443e+006
1.48523 -0.148038 264.958 101325 0.8 309488 3295.47 264.958 0 342.591 0 1.293 -17.9181 -10047 1067.57 -5.54545e+006
1.5359 -0.1581 264.958 101325 0.8 309488 3295.47 264.958 0 342.591 0 1.293 -17.8212 -9992.71 1045.15 -5.51546e+006
1.5899 -0.168672 264.958 101325 0.8 309488 3295.47 264.958 0 342.591 0 1.293 -17.5017 -9813.56 1013.64 -5.41658e+006
1.64743 -0.179785 264.958 101325 0.8 309488 3295.47 264.958 0 342.591 0 1.293 -17.8348 -10000.3 1015.52 -5.51967e+006
1.70865 -0.19148 264.958 101325 0.8 309488 3295.47 264.958 0 342.591 0 1.293 -17.2166 -9653.7 973.741 -5.32834e+006
1.77378 -0.203792 264.958 101325 0.8 309488 3295.47 264.958 0 342.591 0 1.293 -17.444 -9781.18 973.047 -5.39871e+006
1.84302 -0.216757 264.958 101325 0.8 309488 3295.47 264.958 0 342.591 0 1.293 -17.1493 -9615.96 949.452 -5.30751e+006
1.9166 -0.23042 264.958 101325 0.8 309488 3295.47 264.958 0 342.591 0 1.293 -17.235 -9664.02 945.452 -5.33404e+006
1.99475 -0.244825 264.958 101325 0.8 309488 3295.47 264.958 0 342.591 0 1.293 -17.1399 -9610.68 933.687 -5.3046e+006
2.0777 -0.260018 264.958 101325 0.8 309488 3295.47 264.958 0 342.591 0 1.293 -17.0133 -9539.68 921.247 -5.26541e+006
2.1657 -0.276043 264.958 101325 0.8 309488 3295.47 264.958 0 342.591 0 1.293 -17.1732 -9629.36 923.753 -5.31491e+006
2.25905 -0.292957 264.958 101325 0.8 309488 3295.47 264.958 0 342.591 0 1.293 -16.8113 -9426.42 901.123 -5.20289e+006
2.35805 -0.310812 264.958 101325 0.8 309488 3295.47 264.958 0 342.591 0 1.293 -16.9615 -9510.63 904.057 -5.24937e+006
2.46305 -0.329665 264.958 101325 0.8 309488 3295.47 264.958 0 342.591 0 1.293 -16.8913 -9471.29 896.31 -5.22766e+006
2.57437 -0.349583 264.958 101325 0.8 309488 3295.47 264.958 0 342.591 0 1.293 -16.8984 -9475.26 893.84 -5.22985e+006
2.69235 -0.370622 264.958 101325 0.8 309488 3295.47 264.958 0 342.591 0 1.293 -16.7277 -9379.54 881.94 -5.17702e+006
2.81735 -0.392853 264.958 101325 0.8 309488 3295.47 264.958 0 342.591 0 1.293 -16.8299 -9436.84 885.081 -5.20865e+006
2.9498 -0.41635 264.958 101325 0.8 309488 3295.47 264.958 0 342.591 0 1.293 -16.7627 -9399.14 879.235 -5.18784e+006
3.09018 -0.44119 264.958 101325 0.8 309488 3295.47 264.958 0 342.591 0 1.293 -16.7252 -9378.15 875.007 -5.17625e+006
3.2389 -0.467453 264.958 101325 0.8 309488 3295.47 264.958 0 342.591 0 1.293 -16.8154 -9428.69 877.684 -5.20415e+006
3.39642 -0.495225 264.958 101325 0.8 309488 3295.47 264.958 0 342.591 0 1.293 -16.6151 -9316.39 866.614 -5.14217e+006
3.5633 -0.5246 264.958 101325 0.8 309488 3295.47 264.958 0 342.591 0 1.293 -16.7864 -9412.47 873.451 -5.1952e+006
3.74008 -0.555673 264.958 101325 0.8 309488 3295.47 264.958 0 342.591 0 1.293 -16.6253 -9322.13 864.48 -5.14533e+006
3.92738 -0.588542 264.958 101325 0.8 309488 3295.47 264.958 0 342.591 0 1.293 -16.7242 -9377.56 867.233 -5.17593e+006
4.12578 -0.623325 264.958 101325 0.8 309488 3295.47 264.958 0 342.591 0 1.293 -16.6519 -9337.06 863.765 -5.15357e+006
4.33593 -0.66014 264.958 101325 0.8 309488 3295.47 264.958 0 342.591 0 1.293 -16.6629 -9343.2 863.091 -5.15696e+006
4.5586 -0.69911 264.958 101325 0.8 309488 3295.47 264.958 0 342.591 0 1.293 -16.6916 -9359.32 863.746 -5.16586e+006
4.79453 -0.740368 264.958 101325 0.8 309488 3295.47 264.958 0 342.591 0 1.293 -16.6099 -9313.46 858.967 -5.14055e+006
5.0445 -0.784053 264.958 101325 0.8 309488 3295.47 264.958 0 342.591 0 1.293 -16.6439 -9332.58 860.195 -5.1511e+006
5.3094 -0.83032 264.958 101325 0.8 309488 3295.47 264.958 0 342.591 0 1.293 -16.6606 -9341.92 860.498 -5.15626e+006
5.59015 -0.879337 264.958 101325 0.8 309488 3295.47 264.958 0 342.591 0 1.293 -16.6417 -9331.33 859.445 -5.15041e+006
5.88775 -0.931267 264.958 101325 0.8 309488 3295.47 264.958 0 342.591 0 1.293 -16.6443 -9332.78 858.566 -5.15121e+006
6.20327 -0.986308 264.958 101325 0.8 309488 3295.47 264.958 0 342.591 0 1.293 -16.6456 -9333.5 858.94 -5.15161e+006
6.5378 -1.04464 264.958 101325 0.8 309488 3295.47 264.958 0 342.591 0 1.293 -16.59 -9302.35 855.359 -5.13441e+006
6.8926 -1.10649 264.958 101325 0.8 309488 3295.47 264.958 0 342.591 0 1.293 -16.6753 -9350.15 859.449 -5.1608e+006
7.26905 -1.17212 264.958 101325 0.8 309488 3295.47 264.958 0 342.591 0 1.293 -16.4779 -9239.45 850.291 -5.0997e+006
7.66857 -1.24175 264.958 101325 0.8 309488 3295.47 264.958 0 342.591 0 1.293 -16.7888 -9413.8 864.775 -5.19593e+006
8.09272 -1.31567 264.958 101325 0.8 309488 3295.47 264.958 0 342.591 0 1.293 -16.6263 -9322.66 857.195 -5.14563e+006
8.54317 -1.3942 264.958 101325 0.8 309488 3295.47 264.958 0 342.591 0 1.293 -16.634 -9326.99 857.798 -5.14802e+006
9.02185 -1.47762 264.958 101325 0.8 309488 3295.47 264.958 0 342.591 0 1.293 -16.6031 -9309.7 855.685 -5.13847e+006