VARIABLES = "X", "Y", "Speed", "P", "M","H", "S", "Xvel", "Yvel", "F0", "G0", "rho", "nSx", "nSy", "nWx", "nWy", 
ZONE T = "CELL CENTERS AT TIMESTEP 0 ", I = 128 , J = 64, F=POINT 

0.999675 -0.000312425 264.958 101325 0.8 309488 3295.47 264.958 0 342.591 0 1.293 -0.142207 0.989837 -0 -1
0.998715 -0.00110145 264.958 101325 0.8 309488 3295.47 264.958 0 342.591 0 1.293 -0.14111 0.989994 0.974115 0.226055
0.996465 -0.00215532 264.958 101325 0.8 309488 3295.47 264.958 0 342.591 0 1.293 -0.141201 0.989981 0.968923 0.247363
0.99297 -0.00339275 264.958 101325 0.8 309488 3295.47 264.958 0 342.591 0 1.293 -0.140271 0.990113 0.976258 0.216613
0.988263 -0.0047892 264.958 101325 0.8 309488 3295.47 264.958 0 342.591 0 1.293 -0.139751 0.990187 0.981426 0.191842
0.982363 -0.00633395 264.958 101325 0.8 309488 3295.47 264.958 0 342.591 0 1.293 -0.13847 0.990367 0.98528 0.17095
0.97529 -0.00801908 264.958 101325 0.8 309488 3295.47 264.958 0 342.591 0 1.293 -0.137348 0.990523 0.98786 0.155347
0.96707 -0.00983662 264.958 101325 0.8 309488 3295.47 264.958 0 342.591 0 1.293 -0.136039 0.990703 0.989625 0.143671
0.957718 -0.0117785 264.958 101325 0.8 309488 3295.47 264.958 0 342.591 0 1.293 -0.134437 0.990922 0.991049 0.133496
0.947258 -0.0138359 264.958 101325 0.8 309488 3295.47 264.958 0 342.591 0 1.293 -0.132873 0.991133 0.992149 0.125063
0.935717 -0.015999 264.958 101325 0.8 309488 3295.47 264.958 0 342.591 0 1.293 -0.130994 0.991383 0.993121 0.117094
0.923125 -0.0182576 264.958 101325 0.8 309488 3295.47 264.958 0 342.591 0 1.293 -0.129116 0.99163 0.993846 0.110768
0.90951 -0.0206008 264.958 101325 0.8 309488 3295.47 264.958 0 342.591 0 1.293 -0.127058 0.991895 0.994466 0.105056
0.894907 -0.023018 264.958 101325 0.8 309488 3295.47 264.958 0 342.591 0 1.293 -0.125054 0.99215 0.995065 0.0992263
0.879352 -0.0254985 264.958 101325 0.8 309488 3295.47 264.958 0 342.591 0 1.293 -0.122709 0.992443 0.99559 0.0938097
0.862875 -0.02803 264.958 101325 0.8 309488 3295.47 264.958 0 342.591 0 1.293 -0.120324 0.992735 0.996012 0.0892168
0.84552 -0.030601 264.958 101325 0.8 309488 3295.47 264.958 0 342.591 0 1.293 -0.118021 0.993011 0.996397 0.0848165
0.827333 -0.0332005 264.958 101325 0.8 309488 3295.47 264.958 0 342.591 0 1.293 -0.115582 0.993298 0.996788 0.0800898
0.80835 -0.035817 264.958 101325 0.8 309488 3295.47 264.958 0 342.591 0 1.293 -0.113018 0.993593 0.997146 0.0755002
0.78862 -0.0384383 264.958 101325 0.8 309488 3295.47 264.958 0 342.591 0 1.293 -0.110334 0.993895 0.997476 0.0710056
0.768195 -0.0410522 264.958 101325 0.8 309488 3295.47 264.958 0 342.591 0 1.293 -0.107668 0.994187 0.997754 0.066986
0.74712 -0.0436475 264.958 101325 0.8 309488 3295.47 264.958 0 342.591 0 1.293 -0.104898 0.994483 0.998041 0.0625616
0.725445 -0.0462117 264.958 101325 0.8 309488 3295.47 264.958 0 342.591 0 1.293 -0.10193 0.994792 0.998332 0.0577416
0.703222 -0.048733 264.958 101325 0.8 309488 3295.47 264.958 0 342.591 0 1.293 -0.098889 0.995098 0.998579 0.0532959
0.680505 -0.0511993 264.958 101325 0.8 309488 3295.47 264.958 0 342.591 0 1.293 -0.0957157 0.995409 0.998809 0.0487912
0.65735 -0.0535975 264.958 101325 0.8 309488 3295.47 264.958 0 342.591 0 1.293 -0.0923928 0.995723 0.999023 0.0442012
0.633815 -0.055915 264.958 101325 0.8 309488 3295.47 264.958 0 342.591 0 1.293 -0.0887812 0.996051 0.999234 0.0391306
0.609955 -0.0581393 264.958 101325 0.8 309488 3295.47 264.958 0 342.591 0 1.293 -0.0850706 0.996375 0.999412 0.0342864
0.585823 -0.060257 264.958 101325 0.8 309488 3295.47 264.958 0 342.591 0 1.293 -0.0810394 0.996711 0.999582 0.0289095
0.561478 -0.0622547 264.958 101325 0.8 309488 3295.47 264.958 0 342.591 0 1.293 -0.0767028 0.997054 0.999728 0.0233321
0.53698 -0.0641193 264.958 101325 0.8 309488 3295.47 264.958 0 342.591 0 1.293 -0.0721157 0.997396 0.99984 0.0178722
0.51239 -0.0658367 264.958 101325 0.8 309488 3295.47 264.958 0 342.591 0 1.293 -0.0671129 0.997745 0.999926 0.0121329
0.48777 -0.067394 264.958 101325 0.8 309488 3295.47 264.958 0 342.591 0 1.293 -0.0618058 0.998088 0.999984 0.00571378
0.463172 -0.0687772 264.958 101325 0.8 309488 3295.47 264.958 0 342.591 0 1.293 -0.0559579 0.998433 1 -0.000716538
0.438658 -0.0699733 264.958 101325 0.8 309488 3295.47 264.958 0 342.591 0 1.293 -0.0497331 0.998763 0.999971 -0.00756653
0.414287 -0.0709695 264.958 101325 0.8 309488 3295.47 264.958 0 342.591 0 1.293 -0.0429298 0.999078 0.999894 -0.0145302
0.390122 -0.0717533 264.958 101325 0.8 309488 3295.47 264.958 0 342.591 0 1.293 -0.0356498 0.999364 0.999749 -0.0223929
0.36622 -0.0723135 264.958 101325 0.8 309488 3295.47 264.958 0 342.591 0 1.293 -0.0277694 0.999614 0.999535 -0.0304974
0.342635 -0.0726395 264.958 101325 0.8 309488 3295.47 264.958 0 342.591 0 1.293 -0.0192239 0.999815 0.999228 -0.0392847
0.319425 -0.072721 264.958 101325 0.8 309488 3295.47 264.958 0 342.591 0 1.293 -0.0099995 0.99995 0.998825 -0.0484624
0.296642 -0.0725497 264.958 101325 0.8 309488 3295.47 264.958 0 342.591 0 1.293 -8.91266e-005 1 0.99831 -0.0581121
0.27435 -0.0721187 264.958 101325 0.8 309488 3295.47 264.958 0 342.591 0 1.293 0.010629 0.999944 0.997635 -0.0687276
0.2526 -0.0714225 264.958 101325 0.8 309488 3295.47 264.958 0 342.591 0 1.293 0.0221959 0.999754 0.996825 -0.0796206
0.23144 -0.0704572 264.958 101325 0.8 309488 3295.47 264.958 0 342.591 0 1.293 0.0345984 0.999401 0.995746 -0.0921397
0.210927 -0.0692205 264.958 101325 0.8 309488 3295.47 264.958 0 342.591 0 1.293 0.0480998 0.998843 0.994496 -0.104771
0.19111 -0.0677118 264.958 101325 0.8 309488 3295.47 264.958 0 342.591 0 1.293 0.0626159 0.998038 0.992902 -0.118938
0.172035 -0.0659325 264.958 101325 0.8 309488 3295.47 264.958 0 342.591 0 1.293 0.0783376 0.996927 0.990988 -0.133949
0.15375 -0.063886 264.958 101325 0.8 309488 3295.47 264.958 0 342.591 0 1.293 0.0954541 0.995434 0.988613 -0.150483
0.136295 -0.0615773 264.958 101325 0.8 309488 3295.47 264.958 0 342.591 0 1.293 0.11396 0.993485 0.985651 -0.168795
0.119715 -0.059013 264.958 101325 0.8 309488 3295.47 264.958 0 342.591 0 1.293 0.13439 0.990928 0.98213 -0.188205
0.104053 -0.0562012 264.958 101325 0.8 309488 3295.47 264.958 0 342.591 0 1.293 0.156967 0.987604 0.977689 -0.210059
0.0893455 -0.0531515 264.958 101325 0.8 309488 3295.47 264.958 0 342.591 0 1.293 0.181897 0.983318 0.972059 -0.234737
0.0756255 -0.0498753 264.958 101325 0.8 309488 3295.47 264.958 0 342.591 0 1.293 0.20986 0.977732 0.965036 -0.262118
0.0629278 -0.0463838 264.958 101325 0.8 309488 3295.47 264.958 0 342.591 0 1.293 0.241611 0.970373 0.956045 -0.29322
0.0512832 -0.0426892 264.958 101325 0.8 309488 3295.47 264.958 0 342.591 0 1.293 0.278054 0.960565 0.944466 -0.32861
0.04072 -0.0388058 264.958 101325 0.8 309488 3295.47 264.958 0 342.591 0 1.293 0.32034 0.947303 0.929225 -0.369515
0.0312638 -0.034746 264.958 101325 0.8 309488 3295.47 264.958 0 342.591 0 1.293 0.370411 0.928868 0.908805 -0.417221
0.0229378 -0.0305232 264.958 101325 0.8 309488 3295.47 264.958 0 342.591 0 1.293 0.430056 0.902802 0.880962 -0.473187
0.0157616 -0.026151 264.958 101325 0.8 309488 3295.47 264.958 0 342.591 0 1.293 0.502244 0.864726 0.842184 -0.53919
0.00975305 -0.0216417 264.958 101325 0.8 309488 3295.47 264.958 0 342.591 0 1.293 0.589808 0.807543 0.787044 -0.616897
0.00492719 -0.017008 264.958 101325 0.8 309488 3295.47 264.958 0 342.591 0 1.293 0.693801 0.720166 0.707664 -0.706549
0.00129595 -0.012262 264.958 101325 0.8 309488 3295.47 264.958 0 342.591 0 1.293 0.809974 0.586465 0.593518 -0.80482
-0.00113098 -0.007416 264.958 101325 0.8 309488 3295.47 264.958 0 342.591 0 1.293 0.920397 0.390986 0.434519 -0.900663
-0.00234645 -0.00248472 264.958 101325 0.8 309488 3295.47 264.958 0 342.591 0 1.293 0.99053 0.137296 0.229752 -0.973249
-0.00234641 0.00248483 264.958 101325 0.8 309488 3295.47 264.958 0 342.591 0 1.293 0.99053 -0.137296 -2.22591e-005 -1
-0.00113086 0.00741605 264.958 101325 0.8 309488 3295.47 264.958 0 342.591 0 1.293 0.920397 -0.390986 -0.229795 -0.973239
0.00129613 0.012262 264.958 101325 0.8 309488 3295.47 264.958 0 342.591 0 1.293 0.809974 -0.586465 -0.434539 -0.900653
0.00492746 0.017008 264.958 101325 0.8 309488 3295.47 264.958 0 342.591 0 1.293 0.693801 -0.720166 -0.593552 -0.804796
0.00975337 0.0216418 264.958 101325 0.8 309488 3295.47 264.958 0 342.591 0 1.293 0.589808 -0.807543 -0.707706 -0.706507
0.0157621 0.0261508 264.958 101325 0.8 309488 3295.47 264.958 0 342.591 0 1.293 0.502244 -0.864726 -0.787085 -0.616844
0.0229383 0.0305228 264.958 101325 0.8 309488 3295.47 264.958 0 342.591 0 1.293 0.430056 -0.902802 -0.842202 -0.539162
0.0312643 0.0347452 264.958 101325 0.8 309488 3295.47 264.958 0 342.591 0 1.293 0.370411 -0.928868 -0.880981 -0.473152
0.0407205 0.038805 264.958 101325 0.8 309488 3295.47 264.958 0 342.591 0 1.293 0.32034 -0.947303 -0.908808 -0.417215
0.0512837 0.0426885 264.958 101325 0.8 309488 3295.47 264.958 0 342.591 0 1.293 0.278054 -0.960565 -0.929241 -0.369473
0.0629285 0.0463825 264.958 101325 0.8 309488 3295.47 264.958 0 342.591 0 1.293 0.241611 -0.970373 -0.944473 -0.32859
0.0756263 0.049874 264.958 101325 0.8 309488 3295.47 264.958 0 342.591 0 1.293 0.20986 -0.977732 -0.956066 -0.293152
0.0893463 0.0531502 264.958 101325 0.8 309488 3295.47 264.958 0 342.591 0 1.293 0.181897 -0.983318 -0.965043 -0.262091
0.104054 0.0561998 264.958 101325 0.8 309488 3295.47 264.958 0 342.591 0 1.293 0.156967 -0.987604 -0.972076 -0.234664
0.119715 0.0590112 264.958 101325 0.8 309488 3295.47 264.958 0 342.591 0 1.293 0.13439 -0.990928 -0.977681 -0.210094
0.136295 0.061575 264.958 101325 0.8 309488 3295.47 264.958 0 342.591 0 1.293 0.11396 -0.993485 -0.982122 -0.188245
0.15375 0.0638835 264.958 101325 0.8 309488 3295.47 264.958 0 342.591 0 1.293 0.0954541 -0.995434 -0.985644 -0.168838
0.172035 0.0659297 264.958 101325 0.8 309488 3295.47 264.958 0 342.591 0 1.293 0.0783376 -0.996927 -0.988607 -0.150519
0.19111 0.0677088 264.958 101325 0.8 309488 3295.47 264.958 0 342.591 0 1.293 0.0626159 -0.998038 -0.990983 -0.133987
0.210928 0.0692175 264.958 101325 0.8 309488 3295.47 264.958 0 342.591 0 1.293 0.0480998 -0.998843 -0.992898 -0.11897
0.231443 0.070454 264.958 101325 0.8 309488 3295.47 264.958 0 342.591 0 1.293 0.0345984 -0.999401 -0.994493 -0.104799
0.252603 0.071419 264.958 101325 0.8 309488 3295.47 264.958 0 342.591 0 1.293 0.0221959 -0.999754 -0.995782 -0.0917459
0.274353 0.072115 264.958 101325 0.8 309488 3295.47 264.958 0 342.591 0 1.293 0.010629 -0.999944 -0.996823 -0.0796435
0.296645 0.0725455 264.958 101325 0.8 309488 3295.47 264.958 0 342.591 0 1.293 -8.91266e-005 -1 -0.997661 -0.0683495
0.319425 0.0727165 264.958 101325 0.8 309488 3295.47 264.958 0 342.591 0 1.293 -0.0099995 -0.99995 -0.998309 -0.0581326
0.342635 0.072635 264.958 101325 0.8 309488 3295.47 264.958 0 342.591 0 1.293 -0.0192239 -0.999815 -0.998824 -0.0484791
0.36622 0.072309 264.958 101325 0.8 309488 3295.47 264.958 0 342.591 0 1.293 -0.0277694 -0.999614 -0.999228 -0.039298
0.390122 0.0717485 264.958 101325 0.8 309488 3295.47 264.958 0 342.591 0 1.293 -0.0356498 -0.999364 -0.999535 -0.0305076
0.414288 0.0709645 264.958 101325 0.8 309488 3295.47 264.958 0 342.591 0 1.293 -0.0429298 -0.999078 -0.999749 -0.0224011
0.438657 0.0699683 264.958 101325 0.8 309488 3295.47 264.958 0 342.591 0 1.293 -0.0497331 -0.998763 -0.999894 -0.0145355
0.463172 0.068772 264.958 101325 0.8 309488 3295.47 264.958 0 342.591 0 1.293 -0.0559579 -0.998433 -0.999971 -0.00756926
0.48777 0.0673887 264.958 101325 0.8 309488 3295.47 264.958 0 342.591 0 1.293 -0.0618058 -0.998088 -1 -0.00071682
0.51239 0.0658317 264.958 101325 0.8 309488 3295.47 264.958 0 342.591 0 1.293 -0.0671129 -0.997745 -0.999984 0.00571583
0.53698 0.064114 264.958 101325 0.8 309488 3295.47 264.958 0 342.591 0 1.293 -0.0721157 -0.997396 -0.999926 0.0121372
0.561478 0.0622495 264.958 101325 0.8 309488 3295.47 264.958 0 342.591 0 1.293 -0.0767028 -0.997054 -0.99984 0.0178792
0.585823 0.0602518 264.958 101325 0.8 309488 3295.47 264.958 0 342.591 0 1.293 -0.0810394 -0.996711 -0.999728 0.0233405
0.609955 0.058134 264.958 101325 0.8 309488 3295.47 264.958 0 342.591 0 1.293 -0.0850706 -0.996375 -0.999582 0.028921
0.633815 0.05591 264.958 101325 0.8 309488 3295.47 264.958 0 342.591 0 1.293 -0.0887812 -0.996051 -0.999412 0.0342989
0.65735 0.0535925 264.958 101325 0.8 309488 3295.47 264.958 0 342.591 0 1.293 -0.0923928 -0.995723 -0.999234 0.0391451
0.680505 0.0511942 264.958 101325 0.8 309488 3295.47 264.958 0 342.591 0 1.293 -0.0957157 -0.995409 -0.999022 0.0442178
0.703222 0.0487283 264.958 101325 0.8 309488 3295.47 264.958 0 342.591 0 1.293 -0.098889 -0.995098 -0.998808 0.0488098
0.725445 0.0462073 264.958 101325 0.8 309488 3295.47 264.958 0 342.591 0 1.293 -0.10193 -0.994792 -0.998578 0.0533146
0.74712 0.043643 264.958 101325 0.8 309488 3295.47 264.958 0 342.591 0 1.293 -0.104898 -0.994483 -0.99833 0.0577622
0.768195 0.041048 264.958 101325 0.8 309488 3295.47 264.958 0 342.591 0 1.293 -0.107668 -0.994187 -0.99804 0.0625846
0.78862 0.0384343 264.958 101325 0.8 309488 3295.47 264.958 0 342.591 0 1.293 -0.110334 -0.993895 -0.997752 0.0670085
0.80835 0.0358133 264.958 101325 0.8 309488 3295.47 264.958 0 342.591 0 1.293 -0.113018 -0.993593 -0.997474 0.0710303
0.827333 0.0331972 264.958 101325 0.8 309488 3295.47 264.958 0 342.591 0 1.293 -0.115582 -0.993298 -0.997144 0.0755241
0.84552 0.030598 264.958 101325 0.8 309488 3295.47 264.958 0 342.591 0 1.293 -0.118021 -0.993011 -0.996786 0.0801123
0.862875 0.028027 264.958 101325 0.8 309488 3295.47 264.958 0 342.591 0 1.293 -0.120324 -0.992735 -0.996394 0.0848415
0.879352 0.0254957 264.958 101325 0.8 309488 3295.47 264.958 0 342.591 0 1.293 -0.122709 -0.992443 -0.99601 0.0892445
0.894907 0.0230158 264.958 101325 0.8 309488 3295.47 264.958 0 342.591 0 1.293 -0.125054 -0.99215 -0.995588 0.0938354
0.90951 0.0205985 264.958 101325 0.8 309488 3295.47 264.958 0 342.591 0 1.293 -0.127058 -0.991895 -0.995063 0.0992494
0.923125 0.0182554 264.958 101325 0.8 309488 3295.47 264.958 0 342.591 0 1.293 -0.129116 -0.99163 -0.994463 0.105089
0.935717 0.0159972 264.958 101325 0.8 309488 3295.47 264.958 0 342.591 0 1.293 -0.130994 -0.991383 -0.993843 0.110798
0.947258 0.0138346 264.958 101325 0.8 309488 3295.47 264.958 0 342.591 0 1.293 -0.132873 -0.991133 -0.993118 0.11712
0.957718 0.0117775 264.958 101325 0.8 309488 3295.47 264.958 0 342.591 0 1.293 -0.134437 -0.990922 -0.992146 0.125083
0.96707 0.00983563 264.958 101325 0.8 309488 3295.47 264.958 0 342.591 0 1.293 -0.136039 -0.990703 -0.991046 0.13352
0.97529 0.00801807 264.958 101325 0.8 309488 3295.47 264.958 0 342.591 0 1.293 -0.137348 -0.990523 -0.989621 0.143701
0.982363 0.00633322 264.958 101325 0.8 309488 3295.47 264.958 0 342.591 0 1.293 -0.13847 -0.990367 -0.987854 0.155384
0.988262 0.00478883 264.958 101325 0.8 309488 3295.47 264.958 0 342.591 0 1.293 -0.139751 -0.990187 -0.985276 0.170972
0.99297 0.00339252 264.958 101325 0.8 309488 3295.47 264.958 0 342.591 0 1.293 -0.140271 -0.990113 -0.981422 0.191862
0.996465 0.00215519 264.958 101325 0.8 309488 3295.47 264.958 0 342.591 0 1.293 -0.141201 -0.989981 -0.976254 0.216629
0.998715 0.00110137 264.958 101325 0.8 309488 3295.47 264.958 0 342.591 0 1.293 -0.14111 -0.989994 -0.968918 0.247382
0.999675 0.0003124 264.958 101325 0.8 309488 3295.47 264.958 0 342.591 0 1.293 -0.142207 -0.989837 -0.97411 0.226075
1.00073 -0.00093395 264.958 101325 0.8 309488 3295.47 264.958 0 342.591 0 1.293 -1 -0 -0 1
1.00004 -0.00302688 264.958 101325 0.8 309488 3295.47 264.958 0 342.591 0 1.293 -0.755375 0.655293 0.548075 0.836429
0.998032 -0.0054699 264.958 101325 0.8 309488 3295.47 264.958 0 342.591 0 1.293 -0.56321 0.826313 0.769585 0.638544
0.994732 -0.00812565 264.958 101325 0.8 309488 3295.47 264.958 0 342.591 0 1.293 -0.453517 0.891248 0.855933 0.517086
0.99017 -0.0109399 264.958 101325 0.8 309488 3295.47 264.958 0 342.591 0 1.293 -0.385211 0.922829 0.902052 0.431627
0.984382 -0.0138875 264.958 101325 0.8 309488 3295.47 264.958 0 342.591 0 1.293 -0.338668 0.940906 0.928717 0.370788
0.977402 -0.0169527 264.958 101325 0.8 309488 3295.47 264.958 0 342.591 0 1.293 -0.305571 0.952169 0.94576 0.324866
0.969257 -0.0201225 264.958 101325 0.8 309488 3295.47 264.958 0 342.591 0 1.293 -0.27989 0.960032 0.957224 0.289347
0.959965 -0.0233853 264.958 101325 0.8 309488 3295.47 264.958 0 342.591 0 1.293 -0.259427 0.965763 0.965405 0.260754
0.949553 -0.0267298 264.958 101325 0.8 309488 3295.47 264.958 0 342.591 0 1.293 -0.242702 0.970101 0.971343 0.237683
0.938045 -0.0301435 264.958 101325 0.8 309488 3295.47 264.958 0 342.591 0 1.293 -0.228481 0.973548 0.97582 0.218575
0.925473 -0.0336135 264.958 101325 0.8 309488 3295.47 264.958 0 342.591 0 1.293 -0.216156 0.976359 0.979565 0.201126
0.911868 -0.037127 264.958 101325 0.8 309488 3295.47 264.958 0 342.591 0 1.293 -0.204979 0.978766 0.982537 0.186068
0.89726 -0.040671 264.958 101325 0.8 309488 3295.47 264.958 0 342.591 0 1.293 -0.195241 0.980755 0.984854 0.173386
0.881685 -0.044232 264.958 101325 0.8 309488 3295.47 264.958 0 342.591 0 1.293 -0.186199 0.982512 0.986946 0.16105
0.86518 -0.047796 264.958 101325 0.8 309488 3295.47 264.958 0 342.591 0 1.293 -0.177637 0.984096 0.988773 0.149426
0.847788 -0.0513492 264.958 101325 0.8 309488 3295.47 264.958 0 342.591 0 1.293 -0.169733 0.98549 0.990253 0.13928
0.829547 -0.054878 264.958 101325 0.8 309488 3295.47 264.958 0 342.591 0 1.293 -0.162249 0.98675 0.991526 0.129906
0.8105 -0.0583685 264.958 101325 0.8 309488 3295.47 264.958 0 342.591 0 1.293 -0.155039 0.987908 0.992686 0.120727
0.790695 -0.061807 264.958 101325 0.8 309488 3295.47 264.958 0 342.591 0 1.293 -0.148172 0.988962 0.993699 0.112083
0.77018 -0.0651795 264.958 101325 0.8 309488 3295.47 264.958 0 342.591 0 1.293 -0.141421 0.989949 0.994634 0.103456
0.749003 -0.068472 264.958 101325 0.8 309488 3295.47 264.958 0 342.591 0 1.293 -0.134738 0.990881 0.995497 0.09479
0.727215 -0.0716708 264.958 101325 0.8 309488 3295.47 264.958 0 342.591 0 1.293 -0.12825 0.991742 0.99619 0.0872086
0.704868 -0.0747623 264.958 101325 0.8 309488 3295.47 264.958 0 342.591 0 1.293 -0.121768 0.992559 0.996871 0.0790494
0.682015 -0.0777328 264.958 101325 0.8 309488 3295.47 264.958 0 342.591 0 1.293 -0.11527 0.993334 0.997473 0.071051
0.658715 -0.080568 264.958 101325 0.8 309488 3295.47 264.958 0 342.591 0 1.293 -0.108661 0.994079 0.998004 0.063146
0.635023 -0.0832545 264.958 101325 0.8 309488 3295.47 264.958 0 342.591 0 1.293 -0.102114 0.994773 0.998451 0.0556403
0.61099 -0.0857787 264.958 101325 0.8 309488 3295.47 264.958 0 342.591 0 1.293 -0.095287 0.99545 0.998877 0.0473864
0.586675 -0.088125 264.958 101325 0.8 309488 3295.47 264.958 0 342.591 0 1.293 -0.088269 0.996097 0.999237 0.0390621
0.562142 -0.0902828 264.958 101325 0.8 309488 3295.47 264.958 0 342.591 0 1.293 -0.0811271 0.996704 0.99952 0.0309714
0.53745 -0.0922363 264.958 101325 0.8 309488 3295.47 264.958 0 342.591 0 1.293 -0.0736227 0.997286 0.999743 0.0226795
0.512652 -0.0939713 264.958 101325 0.8 309488 3295.47 264.958 0 342.591 0 1.293 -0.0658623 0.997829 0.9999 0.0141514
0.487812 -0.0954788 264.958 101325 0.8 309488 3295.47 264.958 0 342.591 0 1.293 -0.0577344 0.998332 0.999986 0.00530928
0.46299 -0.0967417 264.958 101325 0.8 309488 3295.47 264.958 0 342.591 0 1.293 -0.0491097 0.998793 0.999991 -0.00425936
0.438245 -0.097749 264.958 101325 0.8 309488 3295.47 264.958 0 342.591 0 1.293 -0.0401306 0.999194 0.999908 -0.0135605
0.413637 -0.0984872 264.958 101325 0.8 309488 3295.47 264.958 0 342.591 0 1.293 -0.030613 0.999531 0.999718 -0.0237309
0.389228 -0.0989478 264.958 101325 0.8 309488 3295.47 264.958 0 342.591 0 1.293 -0.0204926 0.99979 0.999429 -0.0337903
0.365075 -0.0991203 264.958 101325 0.8 309488 3295.47 264.958 0 342.591 0 1.293 -0.00984452 0.999952 0.998993 -0.0448705
0.341235 -0.098995 264.958 101325 0.8 309488 3295.47 264.958 0 342.591 0 1.293 0.00153061 0.999999 0.99843 -0.0560139
0.317767 -0.0985648 264.958 101325 0.8 309488 3295.47 264.958 0 342.591 0 1.293 0.0136233 0.999907 0.99766 -0.0683771
0.29473 -0.0978207 264.958 101325 0.8 309488 3295.47 264.958 0 342.591 0 1.293 0.0265015 0.999649 0.996714 -0.080999
0.27218 -0.09676 264.958 101325 0.8 309488 3295.47 264.958 0 342.591 0 1.293 0.0402564 0.999189 0.995578 -0.0939337
0.250167 -0.095378 264.958 101325 0.8 309488 3295.47 264.958 0 342.591 0 1.293 0.0548501 0.998495 0.994095 -0.108509
0.22875 -0.0936707 264.958 101325 0.8 309488 3295.47 264.958 0 342.591 0 1.293 0.0705774 0.997506 0.992321 -0.12369
0.207983 -0.0916425 264.958 101325 0.8 309488 3295.47 264.958 0 342.591 0 1.293 0.0873923 0.996174 0.990198 -0.139671
0.18791 -0.0892945 264.958 101325 0.8 309488 3295.47 264.958 0 342.591 0 1.293 0.105439 0.994426 0.987549 -0.157313
0.168588 -0.0866263 264.958 101325 0.8 309488 3295.47 264.958 0 342.591 0 1.293 0.12497 0.992161 0.984359 -0.176175
0.15006 -0.0836465 264.958 101325 0.8 309488 3295.47 264.958 0 342.591 0 1.293 0.145947 0.989292 0.980531 -0.196366
0.13237 -0.0803615 264.958 101325 0.8 309488 3295.47 264.958 0 342.591 0 1.293 0.168876 0.985637 0.975909 -0.218176
0.115565 -0.0767795 264.958 101325 0.8 309488 3295.47 264.958 0 342.591 0 1.293 0.193791 0.981043 0.970177 -0.242399
0.0996848 -0.072911 264.958 101325 0.8 309488 3295.47 264.958 0 342.591 0 1.293 0.221169 0.975235 0.963291 -0.268459
0.0847663 -0.068768 264.958 101325 0.8 309488 3295.47 264.958 0 342.591 0 1.293 0.251387 0.967887 0.954681 -0.297631
0.0708483 -0.0643637 264.958 101325 0.8 309488 3295.47 264.958 0 342.591 0 1.293 0.284934 0.958547 0.944022 -0.329882
0.0579642 -0.0597117 264.958 101325 0.8 309488 3295.47 264.958 0 342.591 0 1.293 0.322775 0.946476 0.930672 -0.365854
0.046146 -0.054827 264.958 101325 0.8 309488 3295.47 264.958 0 342.591 0 1.293 0.365372 0.930862 0.913723 -0.406337
0.0354223 -0.0497255 264.958 101325 0.8 309488 3295.47 264.958 0 342.591 0 1.293 0.413878 0.910332 0.892004 -0.452028
0.0258195 -0.044423 264.958 101325 0.8 309488 3295.47 264.958 0 342.591 0 1.293 0.469729 0.882811 0.86383 -0.503783
0.0173618 -0.038936 264.958 101325 0.8 309488 3295.47 264.958 0 342.591 0 1.293 0.533952 0.845515 0.826781 -0.562523
0.0100696 -0.0332812 264.958 101325 0.8 309488 3295.47 264.958 0 342.591 0 1.293 0.607647 0.794207 0.777566 -0.628801
0.0039613 -0.0274755 264.958 101325 0.8 309488 3295.47 264.958 0 342.591 0 1.293 0.69091 0.722941 0.711854 -0.702327
-0.000947005 -0.0215363 264.958 101325 0.8 309488 3295.47 264.958 0 342.591 0 1.293 0.781452 0.623965 0.624049 -0.781386
-0.00464211 -0.0154825 264.958 101325 0.8 309488 3295.47 264.958 0 342.591 0 1.293 0.872039 0.489436 0.508759 -0.860909
-0.0071129 -0.0093348 264.958 101325 0.8 309488 3295.47 264.958 0 342.591 0 1.293 0.948961 0.315395 0.362788 -0.931872
-0.00835077 -0.00311995 264.958 101325 0.8 309488 3295.47 264.958 0 342.591 0 1.293 0.994024 0.109159 0.189212 -0.981936
-0.00835072 0.00312035 264.958 101325 0.8 309488 3295.47 264.958 0 342.591 0 1.293 0.99402 -0.109195 -2.55998e-005 -1
-0.0071126 0.009335 264.958 101325 0.8 309488 3295.47 264.958 0 342.591 0 1.293 0.948952 -0.31542 -0.189263 -0.981926
-0.00464149 0.0154828 264.958 101325 0.8 309488 3295.47 264.958 0 342.591 0 1.293 0.872029 -0.489455 -0.362807 -0.931864
-0.000946143 0.0215365 264.958 101325 0.8 309488 3295.47 264.958 0 342.591 0 1.293 0.781441 -0.623979 -0.508887 -0.860834
0.0039624 0.0274753 264.958 101325 0.8 309488 3295.47 264.958 0 342.591 0 1.293 0.690903 -0.722948 -0.624095 -0.781348
0.010071 0.0332805 264.958 101325 0.8 309488 3295.47 264.958 0 342.591 0 1.293 0.607555 -0.794278 -0.711855 -0.702327
0.0173633 0.0389348 264.958 101325 0.8 309488 3295.47 264.958 0 342.591 0 1.293 0.533952 -0.845515 -0.777615 -0.628741
0.025821 0.0444213 264.958 101325 0.8 309488 3295.47 264.958 0 342.591 0 1.293 0.469652 -0.882852 -0.826795 -0.562504
0.035424 0.0497235 264.958 101325 0.8 309488 3295.47 264.958 0 342.591 0 1.293 0.413953 -0.910298 -0.863866 -0.503721
0.046148 0.0548248 264.958 101325 0.8 309488 3295.47 264.958 0 342.591 0 1.293 0.3653 -0.93089 -0.892034 -0.451968
0.0579665 0.0597087 264.958 101325 0.8 309488 3295.47 264.958 0 342.591 0 1.293 0.322682 -0.946508 -0.913765 -0.406244
0.0708505 0.0643602 264.958 101325 0.8 309488 3295.47 264.958 0 342.591 0 1.293 0.28502 -0.958521 -0.930686 -0.365819
0.0847688 0.068764 264.958 101325 0.8 309488 3295.47 264.958 0 342.591 0 1.293 0.251307 -0.967907 -0.944041 -0.329829
0.0996863 0.0729062 264.958 101325 0.8 309488 3295.47 264.958 0 342.591 0 1.293 0.221197 -0.975229 -0.954699 -0.297574
0.115568 0.0767738 264.958 101325 0.8 309488 3295.47 264.958 0 342.591 0 1.293 0.193733 -0.981054 -0.963275 -0.268516
0.132373 0.0803548 264.958 101325 0.8 309488 3295.47 264.958 0 342.591 0 1.293 0.16882 -0.985647 -0.970285 -0.241965
0.150062 0.0836392 264.958 101325 0.8 309488 3295.47 264.958 0 342.591 0 1.293 0.145947 -0.989292 -0.9759 -0.218219
0.168593 0.0866182 264.958 101325 0.8 309488 3295.47 264.958 0 342.591 0 1.293 0.124918 -0.992167 -0.980614 -0.195949
0.187915 0.0892837 264.958 101325 0.8 309488 3295.47 264.958 0 342.591 0 1.293 0.105439 -0.994426 -0.984432 -0.175767
0.207985 0.091632 264.958 101325 0.8 309488 3295.47 264.958 0 342.591 0 1.293 0.0873923 -0.996174 -0.987603 -0.156975
0.228755 0.09366 264.958 101325 0.8 309488 3295.47 264.958 0 342.591 0 1.293 0.0704966 -0.997512 -0.990195 -0.139695
0.250173 0.0953645 264.958 101325 0.8 309488 3295.47 264.958 0 342.591 0 1.293 0.0548755 -0.998493 -0.992313 -0.123757
0.272182 0.0967463 264.958 101325 0.8 309488 3295.47 264.958 0 342.591 0 1.293 0.0401932 -0.999192 -0.994089 -0.108566
0.294732 0.0978065 264.958 101325 0.8 309488 3295.47 264.958 0 342.591 0 1.293 0.0264691 -0.99965 -0.995537 -0.0943712
0.31777 0.0985503 264.958 101325 0.8 309488 3295.47 264.958 0 342.591 0 1.293 0.0136233 -0.999907 -0.996711 -0.0810334
0.341238 0.0989805 264.958 101325 0.8 309488 3295.47 264.958 0 342.591 0 1.293 0.00153061 -0.999999 -0.997683 -0.0680273
0.365075 0.0991057 264.958 101325 0.8 309488 3295.47 264.958 0 342.591 0 1.293 -0.00984452 -0.999952 -0.998429 -0.0560369
0.389228 0.098933 264.958 101325 0.8 309488 3295.47 264.958 0 342.591 0 1.293 -0.020534 -0.999789 -0.998992 -0.0448886
0.41364 0.0984722 264.958 101325 0.8 309488 3295.47 264.958 0 342.591 0 1.293 -0.030613 -0.999531 -0.999429 -0.0338025
0.438248 0.097734 264.958 101325 0.8 309488 3295.47 264.958 0 342.591 0 1.293 -0.0401306 -0.999194 -0.999727 -0.0233799
0.46299 0.0967265 264.958 101325 0.8 309488 3295.47 264.958 0 342.591 0 1.293 -0.0491501 -0.998791 -0.999908 -0.0135653
0.487813 0.0954635 264.958 101325 0.8 309488 3295.47 264.958 0 342.591 0 1.293 -0.0576941 -0.998334 -0.999991 -0.00426072
0.512652 0.0939562 264.958 101325 0.8 309488 3295.47 264.958 0 342.591 0 1.293 -0.0658623 -0.997829 -0.999986 0.00531116
0.53745 0.092221 264.958 101325 0.8 309488 3295.47 264.958 0 342.591 0 1.293 -0.073663 -0.997283 -0.9999 0.0141564
0.562142 0.0902675 264.958 101325 0.8 309488 3295.47 264.958 0 342.591 0 1.293 -0.0810867 -0.996707 -0.999743 0.0226868
0.586675 0.0881098 264.958 101325 0.8 309488 3295.47 264.958 0 342.591 0 1.293 -0.0883096 -0.996093 -0.99952 0.0309824
0.61099 0.0857632 264.958 101325 0.8 309488 3295.47 264.958 0 342.591 0 1.293 -0.0952461 -0.995454 -0.999236 0.0390747
0.635023 0.083239 264.958 101325 0.8 309488 3295.47 264.958 0 342.591 0 1.293 -0.102114 -0.994773 -0.998876 0.0474053
0.658715 0.0805527 264.958 101325 0.8 309488 3295.47 264.958 0 342.591 0 1.293 -0.108661 -0.994079 -0.99845 0.0556627
0.682015 0.077718 264.958 101325 0.8 309488 3295.47 264.958 0 342.591 0 1.293 -0.11527 -0.993334 -0.998003 0.0631694
0.704867 0.074748 264.958 101325 0.8 309488 3295.47 264.958 0 342.591 0 1.293 -0.121725 -0.992564 -0.997471 0.0710751
0.727215 0.071657 264.958 101325 0.8 309488 3295.47 264.958 0 342.591 0 1.293 -0.12825 -0.991742 -0.996868 0.0790798
0.749003 0.0684585 264.958 101325 0.8 309488 3295.47 264.958 0 342.591 0 1.293 -0.134738 -0.990881 -0.996187 0.0872394
0.77018 0.0651665 264.958 101325 0.8 309488 3295.47 264.958 0 342.591 0 1.293 -0.141375 -0.989956 -0.995494 0.0948244
0.790695 0.0617947 264.958 101325 0.8 309488 3295.47 264.958 0 342.591 0 1.293 -0.148172 -0.988962 -0.99463 0.103494
0.810497 0.058357 264.958 101325 0.8 309488 3295.47 264.958 0 342.591 0 1.293 -0.154989 -0.987916 -0.993695 0.112121
0.829542 0.0548675 264.958 101325 0.8 309488 3295.47 264.958 0 342.591 0 1.293 -0.162197 -0.986758 -0.992734 0.120329
0.847785 0.0513395 264.958 101325 0.8 309488 3295.47 264.958 0 342.591 0 1.293 -0.169733 -0.98549 -0.99158 0.129497
0.86518 0.0477867 264.958 101325 0.8 309488 3295.47 264.958 0 342.591 0 1.293 -0.177637 -0.984096 -0.990246 0.139327
0.881685 0.0442235 264.958 101325 0.8 309488 3295.47 264.958 0 342.591 0 1.293 -0.18614 -0.982523 -0.988766 0.149472
0.897257 0.0406635 264.958 101325 0.8 309488 3295.47 264.958 0 342.591 0 1.293 -0.195178 -0.980768 -0.986938 0.161102
0.911865 0.0371203 264.958 101325 0.8 309488 3295.47 264.958 0 342.591 0 1.293 -0.205046 -0.978752 -0.984942 0.172887
0.925472 0.0336075 264.958 101325 0.8 309488 3295.47 264.958 0 342.591 0 1.293 -0.216085 -0.976374 -0.982531 0.186102
0.938045 0.0301382 264.958 101325 0.8 309488 3295.47 264.958 0 342.591 0 1.293 -0.228404 -0.973566 -0.979557 0.201166
0.949552 0.0267255 264.958 101325 0.8 309488 3295.47 264.958 0 342.591 0 1.293 -0.242619 -0.970122 -0.975807 0.218636
0.959965 0.023382 264.958 101325 0.8 309488 3295.47 264.958 0 342.591 0 1.293 -0.259427 -0.965763 -0.971329 0.237738
0.969258 0.0201195 264.958 101325 0.8 309488 3295.47 264.958 0 342.591 0 1.293 -0.27989 -0.960032 -0.965393 0.260798
0.977402 0.01695 264.958 101325 0.8 309488 3295.47 264.958 0 342.591 0 1.293 -0.305571 -0.952169 -0.957208 0.289402
0.98438 0.0138858 264.958 101325 0.8 309488 3295.47 264.958 0 342.591 0 1.293 -0.338525 -0.940957 -0.945748 0.324901
0.990167 0.0109388 264.958 101325 0.8 309488 3295.47 264.958 0 342.591 0 1.293 -0.385166 -0.922847 -0.929178 0.369633
0.994732 0.00812475 264.958 101325 0.8 309488 3295.47 264.958 0 342.591 0 1.293 -0.453464 -0.891275 -0.902009 0.431716